
Predictions were generated on 06-Dec-2024 at 11:57:33 using OpenFAST, compiled as a 64-bit application using single precision at commit v3.2.1
 linked with  NWTC Subroutine Library; ElastoDyn; InflowWind; AeroDyn; ServoDyn

Description from the FAST input file: OpenFast Main File Tutorial 1

Time	Wind1VelX	Wind1VelY	Wind1VelZ	Azimuth	RotSpeed	GenSpeed	OoPDefl1	IPDefl1	TwstDefl1	BldPitch1	TTDspFA	TTDspSS	TTDspTwst	PtfmSurge	PtfmSway	PtfmHeave	PtfmRoll	PtfmPitch	PtfmYaw	RotTorq	TwrBsFxt	TwrBsFyt	TwrBsFzt	TwrBsMxt	TwrBsMyt	TwrBsMzt	RootMxb1	RootMyb1	GenPwr	GenTq
(s)	(m/s)	(m/s)	(m/s)	(deg)	(rpm)	(rpm)	(m)	(m)	(deg)	(deg)	(m)	(m)	(deg)	(m)	(m)	(m)	(deg)	(deg)	(deg)	(kN-m)	(kN)	(kN)	(kN)	(kN-m)	(kN-m)	(kN-m)	(kN-m)	(kN-m)	(kW)	(kN-m)
    0.0000	  4.7949305E+00	  0.0000000E+00	  0.0000000E+00	  0.0000000E+00	  0.0000000E+00	  0.0000000E+00	  0.0000000E+00	  0.0000000E+00	  0.0000000E+00	  0.0000000E+00	  0.0000000E+00	  0.0000000E+00	  0.0000000E+00	  0.0000000E+00	  0.0000000E+00	  0.0000000E+00	  0.0000000E+00	  0.0000000E+00	  0.0000000E+00	  1.1896771E-04	 -1.7842075E+01	  5.6396395E-02	 -6.0896377E+03	 -1.3643084E+00	 -4.0932224E+02	  1.9810706E-05	  4.4895139E+00	  6.1744541E+01	  0.0000000E+00	  0.0000000E+00
    0.1000	  4.8533726E+00	  0.0000000E+00	  0.0000000E+00	  3.2784906E-04	  8.4548973E-04	  3.5030600E-02	  8.7061767E-03	  8.6436636E-04	  0.0000000E+00	  0.0000000E+00	 -1.7379083E-04	  7.3620947E-07	  0.0000000E+00	  0.0000000E+00	  0.0000000E+00	  0.0000000E+00	  0.0000000E+00	  0.0000000E+00	  0.0000000E+00	  4.5381689E+00	  2.3902225E+01	 -3.0031881E-01	 -6.1147300E+03	  9.3664646E+00	  7.9708923E+02	 -1.0541592E+02	 -1.4837403E+00	  1.5325203E+02	  0.0000000E+00	  0.0000000E+00
    0.2000	  4.9118142E+00	  0.0000000E+00	  0.0000000E+00	  1.9124529E-04	 -9.0269954E-04	  6.2669568E-02	  3.6174130E-02	 -7.8529195E-04	  0.0000000E+00	  0.0000000E+00	 -6.6681340E-04	  4.8203437E-06	  0.0000000E+00	  0.0000000E+00	  0.0000000E+00	  0.0000000E+00	  0.0000000E+00	  0.0000000E+00	  0.0000000E+00	 -4.7703252E+00	  3.9215164E+01	  4.5211324E-01	 -6.1716943E+03	 -9.5241156E+00	  1.2984413E+03	 -1.3262318E+02	  1.2845840E+00	  2.4796658E+02	  0.0000000E+00	  0.0000000E+00
    0.3000	  4.9702563E+00	  0.0000000E+00	  0.0000000E+00	  2.1856604E-04	  5.0474727E-04	 -4.8139766E-02	  8.4013373E-02	 -5.9118643E-03	  0.0000000E+00	  0.0000000E+00	 -1.4270542E-03	  1.3535599E-05	  0.0000000E+00	  0.0000000E+00	  0.0000000E+00	  0.0000000E+00	  0.0000000E+00	  0.0000000E+00	  0.0000000E+00	 -3.1947892E+00	  1.8631138E+01	 -1.3940654E+00	 -6.2339404E+03	  4.3597366E+01	  7.4397009E+02	 -2.3778322E+02	  8.0770664E+00	  2.7671884E+02	  0.0000000E+00	  0.0000000E+00
    0.4000	  5.0286984E+00	  0.0000000E+00	  0.0000000E+00	  1.0928302E-04	 -2.2435842E-04	 -6.4199015E-02	  1.4105301E-01	 -1.1108240E-02	  0.0000000E+00	  0.0000000E+00	 -2.5919024E-03	  3.7755461E-05	  0.0000000E+00	  0.0000000E+00	  0.0000000E+00	  0.0000000E+00	  0.0000000E+00	  0.0000000E+00	  0.0000000E+00	  6.6577220E-01	  5.4685661E+01	 -6.0562706E-01	 -6.2783149E+03	  2.0799557E+01	  1.7290941E+03	 -3.9057861E+02	  9.6524010E+00	  3.1426157E+02	  0.0000000E+00	  0.0000000E+00
    0.5000	  5.0871401E+00	  0.0000000E+00	  0.0000000E+00	  6.8301888E-04	  2.1169591E-03	  4.4744805E-02	  1.8284969E-01	 -1.4881408E-02	  0.0000000E+00	  0.0000000E+00	 -4.4729896E-03	  7.3796808E-05	  0.0000000E+00	  0.0000000E+00	  0.0000000E+00	  0.0000000E+00	  0.0000000E+00	  0.0000000E+00	  0.0000000E+00	  1.2848782E+01	  5.6356873E+01	 -1.9635549E-01	 -6.2839370E+03	  4.4185430E-01	  1.5981851E+03	 -2.6800955E+02	  1.6216335E+01	  3.5847632E+02	  0.0000000E+00	  0.0000000E+00
    0.6000	  5.1455822E+00	  0.0000000E+00	  0.0000000E+00	  2.6774341E-03	  4.6396065E-03	  3.9457038E-01	  1.9861664E-01	 -1.5667811E-02	  0.0000000E+00	  0.0000000E+00	 -7.0029381E-03	  1.0736778E-04	  0.0000000E+00	  0.0000000E+00	  0.0000000E+00	  0.0000000E+00	  0.0000000E+00	  0.0000000E+00	  0.0000000E+00	  2.3322264E+01	  1.2626086E+01	  1.0193918E-01	 -6.2494575E+03	 -1.9519239E+01	  5.1228645E+01	  2.4681410E+01	  9.4282007E+00	  4.1694925E+02	  0.0000000E+00	  0.0000000E+00
    0.7000	  5.2040243E+00	  0.0000000E+00	  0.0000000E+00	  6.4203776E-03	  8.1537440E-03	  8.2358330E-01	  1.9862716E-01	 -1.2220287E-02	  0.0000000E+00	  0.0000000E+00	 -9.5612146E-03	  1.2727482E-04	  0.0000000E+00	  0.0000000E+00	  0.0000000E+00	  0.0000000E+00	  0.0000000E+00	  0.0000000E+00	  0.0000000E+00	  2.2054056E+01	  2.4948023E+01	  2.4958117E+00	 -6.1931270E+03	 -9.7254913E+01	  8.2695091E+01	  4.4366959E+02	 -3.4605086E+00	  4.8670221E+02	  0.0000000E+00	  0.0000000E+00
    0.8000	  5.2624664E+00	  0.0000000E+00	  0.0000000E+00	  1.2376302E-02	  1.1087490E-02	  1.1940249E+00	  1.9052027E-01	 -8.8265035E-03	  0.0000000E+00	  0.0000000E+00	 -1.1479891E-02	  1.1057096E-04	  0.0000000E+00	  0.0000000E+00	  0.0000000E+00	  0.0000000E+00	  0.0000000E+00	  0.0000000E+00	  0.0000000E+00	  1.6442715E+01	  2.0300964E+01	  2.0223010E+00	 -6.1356069E+03	 -8.6944054E+01	 -3.1660092E+02	  7.5546918E+02	 -1.3719690E+01	  4.4410956E+02	  0.0000000E+00	  0.0000000E+00
    0.9000	  5.3209081E+00	  0.0000000E+00	  0.0000000E+00	  1.9561661E-02	  1.3222917E-02	  1.3661312E+00	  1.7012936E-01	 -7.8806663E-03	  0.0000000E+00	  0.0000000E+00	 -1.2423192E-02	  5.0024151E-05	  0.0000000E+00	  0.0000000E+00	  0.0000000E+00	  0.0000000E+00	  0.0000000E+00	  0.0000000E+00	  0.0000000E+00	  3.3659077E+00	 -2.0673660E+01	  1.7810503E+00	 -6.1017979E+03	 -7.0755417E+01	 -1.6449163E+03	  7.4393231E+02	 -2.1490089E+01	  3.1660406E+02	  0.0000000E+00	  0.0000000E+00
    1.0000	  5.3793502E+00	  0.0000000E+00	  0.0000000E+00	  2.8304303E-02	  1.5613794E-02	  1.4338815E+00	  1.3237765E-01	 -5.6297057E-03	  0.0000000E+00	  0.0000000E+00	 -1.2450919E-02	 -4.1116837E-05	  0.0000000E+00	  0.0000000E+00	  0.0000000E+00	  0.0000000E+00	  0.0000000E+00	  0.0000000E+00	  0.0000000E+00	  6.3641014E+00	 -1.8301937E-01	  9.4824594E-01	 -6.1113193E+03	 -3.4105312E+01	 -1.0679155E+03	  5.1449475E+02	 -1.4604646E+01	  2.7250171E+02	  0.0000000E+00	  0.0000000E+00
    1.1000	  5.3485994E+00	  0.0000000E+00	  0.0000000E+00	  3.8085133E-02	  1.6999695E-02	  1.6135864E+00	  8.3184972E-02	 -3.6368505E-03	  0.0000000E+00	  0.0000000E+00	 -1.1879540E-02	 -1.5408725E-04	  0.0000000E+00	  0.0000000E+00	  0.0000000E+00	  0.0000000E+00	  0.0000000E+00	  0.0000000E+00	  0.0000000E+00	  1.2253348E+01	  1.8814997E+01	  4.9217439E-01	 -6.1576504E+03	 -4.0295115E+00	 -4.0837906E+02	  1.5397005E+02	 -2.6990783E+00	  2.8447079E+02	  0.0000000E+00	  0.0000000E+00
    1.2000	  5.3178487E+00	  0.0000000E+00	  0.0000000E+00	  4.8822191E-02	  1.8859042E-02	  1.8483084E+00	  4.3688793E-02	 -3.5102190E-03	  0.0000000E+00	  0.0000000E+00	 -1.0987820E-02	 -2.7502459E-04	  0.0000000E+00	  0.0000000E+00	  0.0000000E+00	  0.0000000E+00	  0.0000000E+00	  0.0000000E+00	  0.0000000E+00	  1.2419375E+01	  3.0537403E+00	 -5.4481548E-01	 -6.2174600E+03	  4.4896961E+01	 -6.7903949E+02	 -2.2095016E+02	  9.0390816E+00	  2.5447664E+02	  0.0000000E+00	  0.0000000E+00
    1.3000	  5.2870979E+00	  0.0000000E+00	  0.0000000E+00	  6.0433511E-02	  1.9467868E-02	  2.0264981E+00	  3.0225914E-02	 -3.6808350E-03	  0.0000000E+00	  0.0000000E+00	 -1.0055262E-02	 -3.7833193E-04	  0.0000000E+00	  0.0000000E+00	  0.0000000E+00	  0.0000000E+00	  0.0000000E+00	  0.0000000E+00	  0.0000000E+00	  4.8652768E+00	  3.4530113E+01	 -1.7234968E+00	 -6.2662397E+03	  9.6370407E+01	  3.9187100E+02	 -5.2571454E+02	  1.9215378E+01	  1.9343408E+02	  0.0000000E+00	  0.0000000E+00
    1.4000	  5.2563472E+00	  0.0000000E+00	  0.0000000E+00	  7.2072156E-02	  1.9319380E-02	  1.9840840E+00	  3.3257049E-02	 -4.9237381E-03	  0.0000000E+00	  0.0000000E+00	 -9.5810713E-03	 -4.4314185E-04	  0.0000000E+00	  0.0000000E+00	  0.0000000E+00	  0.0000000E+00	  0.0000000E+00	  0.0000000E+00	  0.0000000E+00	 -8.6947536E+00	  5.1106220E+01	 -2.4139462E+00	 -6.2806987E+03	  1.2931311E+02	  9.2669336E+02	 -7.2706964E+02	  2.3214355E+01	  1.1769040E+02	  0.0000000E+00	  0.0000000E+00
    1.5000	  5.2255964E+00	  0.0000000E+00	  0.0000000E+00	  8.3464906E-02	  1.8568991E-02	  1.7765133E+00	  3.5783034E-02	 -6.1552636E-03	  0.0000000E+00	  0.0000000E+00	 -9.9746929E-03	 -4.5365901E-04	  0.0000000E+00	  0.0000000E+00	  0.0000000E+00	  0.0000000E+00	  0.0000000E+00	  0.0000000E+00	  0.0000000E+00	 -1.1704432E+01	  1.3365684E+01	 -3.2807803E+00	 -6.2542432E+03	  1.5505049E+02	 -2.5441278E+02	 -7.0472156E+02	  2.4462824E+01	  1.0213100E+02	  0.0000000E+00	  0.0000000E+00
    1.6000	  5.1948457E+00	  0.0000000E+00	  0.0000000E+00	  9.4447851E-02	  1.8251609E-02	  1.6277032E+00	  4.0173579E-02	 -5.0831488E-03	  0.0000000E+00	  0.0000000E+00	 -1.1118618E-02	 -4.0609387E-04	  0.0000000E+00	  0.0000000E+00	  0.0000000E+00	  0.0000000E+00	  0.0000000E+00	  0.0000000E+00	  0.0000000E+00	 -2.5794902E+00	  1.1820468E+01	 -1.6663868E+00	 -6.2024111E+03	  9.6810028E+01	 -5.0482324E+02	 -4.2628705E+02	  2.1729309E+01	  2.1604770E+02	  0.0000000E+00	  0.0000000E+00
    1.7000	  5.1640949E+00	  0.0000000E+00	  0.0000000E+00	  1.0554007E-01	  1.8846214E-02	  1.7104516E+00	  6.1635103E-02	 -4.4119046E-03	  0.0000000E+00	  0.0000000E+00	 -1.2442646E-02	 -3.2604559E-04	  0.0000000E+00	  0.0000000E+00	  0.0000000E+00	  0.0000000E+00	  0.0000000E+00	  0.0000000E+00	  0.0000000E+00	  1.0919873E+01	  1.2673982E+01	  4.2388957E-02	 -6.1457471E+03	  2.8930763E+01	 -6.8902948E+02	 -9.5847836E+00	  1.4091748E+01	  3.2164005E+02	  0.0000000E+00	  0.0000000E+00
    1.8000	  5.1333442E+00	  0.0000000E+00	  0.0000000E+00	  1.1717872E-01	  2.0120496E-02	  1.9659395E+00	  1.0584027E-01	 -6.7215036E-03	  0.0000000E+00	  0.0000000E+00	 -1.3283374E-02	 -2.4702828E-04	  0.0000000E+00	  0.0000000E+00	  0.0000000E+00	  0.0000000E+00	  0.0000000E+00	  0.0000000E+00	  0.0000000E+00	  1.4666409E+01	 -2.0053331E+01	  8.8940078E-01	 -6.1071001E+03	 -1.0845732E+01	 -1.7464058E+03	  3.4715244E+02	  4.4585152E+00	  3.1060300E+02	  0.0000000E+00	  0.0000000E+00
    1.9000	  5.1025934E+00	  0.0000000E+00	  0.0000000E+00	  1.2991019E-01	  2.2286268E-02	  2.2059727E+00	  1.5634008E-01	 -9.3330247E-03	  0.0000000E+00	  0.0000000E+00	 -1.3284688E-02	 -1.8656114E-04	  0.0000000E+00	  0.0000000E+00	  0.0000000E+00	  0.0000000E+00	  0.0000000E+00	  0.0000000E+00	  0.0000000E+00	  1.1052047E+01	 -6.7363997E+00	  1.2098291E+00	 -6.1070435E+03	 -2.7477390E+01	 -1.3484355E+03	  4.6466980E+02	 -2.5261385E+00	  2.9122464E+02	  0.0000000E+00	  0.0000000E+00
    2.0000	  5.0718427E+00	  0.0000000E+00	  0.0000000E+00	  1.4381646E-01	  2.4037631E-02	  2.3698590E+00	  1.8556887E-01	 -1.1207246E-02	  0.0000000E+00	  0.0000000E+00	 -1.2561657E-02	 -1.4904123E-04	  0.0000000E+00	  0.0000000E+00	  0.0000000E+00	  0.0000000E+00	  0.0000000E+00	  0.0000000E+00	  0.0000000E+00	  6.8345027E+00	  1.7059084E+01	  5.8758432E-01	 -6.1452598E+03	 -1.0462620E+01	 -5.3158240E+02	  3.5515686E+02	 -2.5131109E+00	  3.3662381E+02	  0.0000000E+00	  0.0000000E+00
    2.1000	  5.0357976E+00	  0.0000000E+00	  0.0000000E+00	  1.5884288E-01	  2.6097519E-02	  2.4873571E+00	  1.8566726E-01	 -1.2756439E-02	  0.0000000E+00	  0.0000000E+00	 -1.1359367E-02	 -1.2606532E-04	  0.0000000E+00	  0.0000000E+00	  0.0000000E+00	  0.0000000E+00	  0.0000000E+00	  0.0000000E+00	  0.0000000E+00	  7.3220444E+00	  3.9230123E+00	 -1.8597815E-02	 -6.2033301E+03	  8.1831284E+00	 -6.9804242E+02	  1.6318329E+02	  4.4901848E+00	  4.1489557E+02	  0.0000000E+00	  0.0000000E+00
    2.2000	  4.9997525E+00	  0.0000000E+00	  0.0000000E+00	  1.7518069E-01	  2.8373171E-02	  2.6805754E+00	  1.7452110E-01	 -1.3079554E-02	  0.0000000E+00	  0.0000000E+00	 -9.7918157E-03	 -1.0369490E-04	  0.0000000E+00	  0.0000000E+00	  0.0000000E+00	  0.0000000E+00	  0.0000000E+00	  0.0000000E+00	  0.0000000E+00	  1.3957701E+01	  2.5652582E+01	  5.0868537E-02	 -6.2578477E+03	  5.4222698E+00	  1.7392592E+02	  1.5024972E+01	  1.4162114E+01	  4.7134042E+02	  0.0000000E+00	  0.0000000E+00
    2.3000	  4.9637074E+00	  0.0000000E+00	  0.0000000E+00	  1.9288453E-01	  3.0667925E-02	  2.9772594E+00	  1.6446552E-01	 -1.3443622E-02	  0.0000000E+00	  0.0000000E+00	 -8.0505228E-03	 -7.8997342E-05	  0.0000000E+00	  0.0000000E+00	  0.0000000E+00	  0.0000000E+00	  0.0000000E+00	  0.0000000E+00	  0.0000000E+00	  1.6973980E+01	  5.3816658E+01	  3.1720847E-01	 -6.2834644E+03	 -4.1380200E+00	  1.2111787E+03	 -4.2858406E+01	  2.1213850E+01	  4.0924863E+02	  0.0000000E+00	  0.0000000E+00
    2.4000	  4.9276624E+00	  0.0000000E+00	  0.0000000E+00	  2.1200906E-01	  3.3044506E-02	  3.2648895E+00	  1.4584593E-01	 -1.3552555E-02	  0.0000000E+00	  0.0000000E+00	 -6.4873868E-03	 -5.3474268E-05	  0.0000000E+00	  0.0000000E+00	  0.0000000E+00	  0.0000000E+00	  0.0000000E+00	  0.0000000E+00	  0.0000000E+00	  1.3378364E+01	  3.3601665E+01	 -1.2993470E-02	 -6.2673799E+03	  3.3505445E+00	  7.7045258E+02	 -3.5607563E+01	  2.2744761E+01	  2.5585774E+02	  0.0000000E+00	  0.0000000E+00
    2.5000	  4.8916168E+00	  0.0000000E+00	  0.0000000E+00	  2.3241766E-01	  3.4868330E-02	  3.4515243E+00	  1.0575972E-01	 -1.0000663E-02	  0.0000000E+00	  0.0000000E+00	 -5.3733494E-03	 -2.3428236E-05	  0.0000000E+00	  0.0000000E+00	  0.0000000E+00	  0.0000000E+00	  0.0000000E+00	  0.0000000E+00	  0.0000000E+00	  6.7993865E+00	  2.9503775E+01	  2.9485915E-02	 -6.2199878E+03	 -6.2218213E-01	  6.7744415E+02	  2.5576826E+01	  1.9282078E+01	  1.8856650E+02	  0.0000000E+00	  0.0000000E+00
    2.6000	  4.8555717E+00	  0.0000000E+00	  0.0000000E+00	  2.5370052E-01	  3.5949130E-02	  3.5267825E+00	  5.0815653E-02	 -3.8175762E-03	  0.0000000E+00	  0.0000000E+00	 -4.6948567E-03	  6.9496750E-06	  0.0000000E+00	  0.0000000E+00	  0.0000000E+00	  0.0000000E+00	  0.0000000E+00	  0.0000000E+00	  0.0000000E+00	  1.8528168E+00	  3.1512032E+01	  3.4292454E-01	 -6.1616030E+03	 -1.3739782E+01	  6.8963049E+02	  1.3980869E+02	  1.3190464E+01	  2.2538287E+02	  0.0000000E+00	  0.0000000E+00
    2.7000	  4.8195267E+00	  0.0000000E+00	  0.0000000E+00	  2.7539322E-01	  3.6307856E-02	  3.5356097E+00	  9.2287045E-03	  4.4173413E-04	  0.0000000E+00	  0.0000000E+00	 -4.1237255E-03	  2.5935224E-05	  0.0000000E+00	  0.0000000E+00	  0.0000000E+00	  0.0000000E+00	  0.0000000E+00	  0.0000000E+00	  0.0000000E+00	 -4.8743874E-01	  4.3220971E-02	  5.5686194E-01	 -6.1155112E+03	 -2.3303751E+01	 -2.4152081E+02	  2.4984644E+02	  7.0563149E+00	  2.3614594E+02	  0.0000000E+00	  0.0000000E+00
    2.8000	  4.7834816E+00	  0.0000000E+00	  0.0000000E+00	  2.9724982E-01	  3.6491755E-02	  3.5251884E+00	  4.9517923E-03	  1.2107434E-03	  0.0000000E+00	  0.0000000E+00	 -3.3188441E-03	  2.6761520E-05	  0.0000000E+00	  0.0000000E+00	  0.0000000E+00	  0.0000000E+00	  0.0000000E+00	  0.0000000E+00	  0.0000000E+00	 -1.9364446E-01	  2.6125872E+00	  8.0574793E-01	 -6.1036626E+03	 -3.0340830E+01	 -1.0897225E+02	  2.4531339E+02	  4.8157115E+00	  1.8840350E+02	  0.0000000E+00	  0.0000000E+00
    2.9000	  4.7474365E+00	  0.0000000E+00	  0.0000000E+00	  3.1916106E-01	  3.6574244E-02	  3.5365641E+00	  3.0261993E-02	 -1.4925405E-03	  0.0000000E+00	  0.0000000E+00	 -2.3687193E-03	  8.7201097E-06	  0.0000000E+00	  0.0000000E+00	  0.0000000E+00	  0.0000000E+00	  0.0000000E+00	  0.0000000E+00	  0.0000000E+00	  1.3051208E+00	  2.9287170E+01	  4.0314123E-01	 -6.1306582E+03	 -1.3529699E+01	  7.9212085E+02	  4.9621254E+01	  9.3963718E+00	  1.2631996E+02	  0.0000000E+00	  0.0000000E+00
    3.0000	  4.7113914E+00	  0.0000000E+00	  0.0000000E+00	  3.4115428E-01	  3.6782745E-02	  3.5651283E+00	  5.9075490E-02	 -6.3018347E-03	  0.0000000E+00	  0.0000000E+00	 -1.7159393E-03	 -1.6105310E-05	  0.0000000E+00	  0.0000000E+00	  0.0000000E+00	  0.0000000E+00	  0.0000000E+00	  0.0000000E+00	  0.0000000E+00	  1.6834022E+00	  2.2193712E+01	 -6.2652487E-01	 -6.1826538E+03	  2.4583603E+01	  7.2535449E+02	 -2.7706137E+02	  2.0432791E+01	  1.2703957E+02	  0.0000000E+00	  0.0000000E+00
    3.1000	  4.7390008E+00	  0.0000000E+00	  0.0000000E+00	  3.6333871E-01	  3.7190136E-02	  3.6009121E+00	  8.1588566E-02	 -1.0010249E-02	  0.0000000E+00	  0.0000000E+00	 -1.7016535E-03	 -2.2274889E-05	  0.0000000E+00	  0.0000000E+00	  0.0000000E+00	  0.0000000E+00	  0.0000000E+00	  0.0000000E+00	  0.0000000E+00	  2.2642958E+00	  3.0235464E+01	 -1.4119437E+00	 -6.2386792E+03	  5.2773872E+01	  1.0271416E+03	 -5.5399640E+02	  3.4590202E+01	  2.5272525E+02	  0.0000000E+00	  0.0000000E+00
    3.2000	  4.7666101E+00	  0.0000000E+00	  0.0000000E+00	  3.8576907E-01	  3.7508544E-02	  3.6439443E+00	  1.0861357E-01	 -1.2911701E-02	  0.0000000E+00	  0.0000000E+00	 -2.3959132E-03	  6.6822163E-06	  0.0000000E+00	  0.0000000E+00	  0.0000000E+00	  0.0000000E+00	  0.0000000E+00	  0.0000000E+00	  0.0000000E+00	  2.2015016E+00	  5.1031673E+01	 -1.3770992E+00	 -6.2739214E+03	  5.0037975E+01	  1.6019874E+03	 -6.1776129E+02	  4.5804047E+01	  3.9198926E+02	  0.0000000E+00	  0.0000000E+00
    3.3000	  4.7942195E+00	  0.0000000E+00	  0.0000000E+00	  4.0841797E-01	  3.8086113E-02	  3.6822064E+00	  1.4810777E-01	 -1.6880410E-02	  0.0000000E+00	  0.0000000E+00	 -3.6957429E-03	  6.8277288E-05	  0.0000000E+00	  0.0000000E+00	  0.0000000E+00	  0.0000000E+00	  0.0000000E+00	  0.0000000E+00	  0.0000000E+00	  2.2805469E+00	  3.4171185E+01	 -9.1774040E-01	 -6.2709741E+03	  2.7200361E+01	  9.9693512E+02	 -4.3880685E+02	  4.9760960E+01	  4.0283401E+02	  0.0000000E+00	  0.0000000E+00
    3.4000	  4.8218288E+00	  0.0000000E+00	  0.0000000E+00	  4.3158597E-01	  3.9227966E-02	  3.7494738E+00	  1.8748695E-01	 -1.9679258E-02	  0.0000000E+00	  0.0000000E+00	 -5.4373760E-03	  1.4859518E-04	  0.0000000E+00	  0.0000000E+00	  0.0000000E+00	  0.0000000E+00	  0.0000000E+00	  0.0000000E+00	  0.0000000E+00	  5.7285089E+00	  2.5884354E+01	  5.2823875E-02	 -6.2334458E+03	 -1.5595033E+01	  5.4806042E+02	 -1.1637794E+02	  4.6386021E+01	  3.4858551E+02	  0.0000000E+00	  0.0000000E+00
    3.5000	  4.8494377E+00	  0.0000000E+00	  0.0000000E+00	  4.5565554E-01	  4.1130204E-02	  3.9141023E+00	  2.0130886E-01	 -1.8966848E-02	  0.0000000E+00	  0.0000000E+00	 -7.4347951E-03	  2.2211575E-04	  0.0000000E+00	  0.0000000E+00	  0.0000000E+00	  0.0000000E+00	  0.0000000E+00	  0.0000000E+00	  0.0000000E+00	  1.2405733E+01	  2.9954420E+01	  1.2973986E+00	 -6.1786812E+03	 -6.6460678E+01	  3.9519406E+02	  2.2087660E+02	  3.7803024E+01	  3.4174689E+02	  0.0000000E+00	  0.0000000E+00
    3.6000	  4.8770471E+00	  0.0000000E+00	  0.0000000E+00	  4.8103654E-01	  4.3586817E-02	  4.1974969E+00	  1.8072848E-01	 -1.5417329E-02	  0.0000000E+00	  0.0000000E+00	 -9.3312031E-03	  2.5969301E-04	  0.0000000E+00	  0.0000000E+00	  0.0000000E+00	  0.0000000E+00	  0.0000000E+00	  0.0000000E+00	  0.0000000E+00	  1.7551874E+01	  1.1494777E+00	  1.9901594E+00	 -6.1294785E+03	 -9.6246315E+01	 -6.9150470E+02	  4.8877496E+02	  2.6505358E+01	  3.8384134E+02	  0.0000000E+00	  0.0000000E+00
    3.7000	  4.9046564E+00	  0.0000000E+00	  0.0000000E+00	  5.0797480E-01	  4.6227101E-02	  4.5222163E+00	  1.4617871E-01	 -1.0460907E-02	  0.0000000E+00	  0.0000000E+00	 -1.0586091E-02	  2.4361591E-04	  0.0000000E+00	  0.0000000E+00	  0.0000000E+00	  0.0000000E+00	  0.0000000E+00	  0.0000000E+00	  0.0000000E+00	  1.6615545E+01	 -1.0342559E+01	  2.2943118E+00	 -6.1092510E+03	 -1.0574603E+02	 -1.1757380E+03	  6.3326385E+02	  1.5513540E+01	  4.2223196E+02	  0.0000000E+00	  0.0000000E+00
    3.8000	  4.9322658E+00	  0.0000000E+00	  0.0000000E+00	  5.3644305E-01	  4.8463587E-02	  4.7785635E+00	  1.2056481E-01	 -6.8849283E-03	  0.0000000E+00	  0.0000000E+00	 -1.0885519E-02	  1.6872890E-04	  0.0000000E+00	  0.0000000E+00	  0.0000000E+00	  0.0000000E+00	  0.0000000E+00	  0.0000000E+00	  0.0000000E+00	  1.0617674E+01	  1.0670486E+01	  2.0098479E+00	 -6.1268633E+03	 -8.7949043E+01	 -5.6657983E+02	  5.9912036E+02	  9.2322426E+00	  3.7364783E+02	  0.0000000E+00	  0.0000000E+00
    3.9000	  4.9598751E+00	  0.0000000E+00	  0.0000000E+00	  5.6600410E-01	  5.0003588E-02	  4.9078197E+00	  1.0322402E-01	 -6.7875013E-03	  0.0000000E+00	  0.0000000E+00	 -1.0445256E-02	  4.6778419E-05	  0.0000000E+00	  0.0000000E+00	  0.0000000E+00	  0.0000000E+00	  0.0000000E+00	  0.0000000E+00	  0.0000000E+00	  3.8046060E+00	  1.2726880E+01	  9.1126645E-01	 -6.1722456E+03	 -3.8131859E+01	 -3.8048914E+02	  3.6173825E+02	  1.1856187E+01	  2.3274443E+02	  0.0000000E+00	  0.0000000E+00
    4.0000	  4.9874845E+00	  0.0000000E+00	  0.0000000E+00	  5.9638476E-01	  5.1255040E-02	  4.9537239E+00	  7.9247251E-02	 -7.8272410E-03	  0.0000000E+00	  0.0000000E+00	 -9.8180780E-03	 -8.8927736E-05	  0.0000000E+00	  0.0000000E+00	  0.0000000E+00	  0.0000000E+00	  0.0000000E+00	  0.0000000E+00	  0.0000000E+00	  2.4136107E+00	  2.1772749E+01	 -3.7953079E-01	 -6.2265674E+03	  1.9818314E+01	  2.6517309E+01	 -9.0831451E+00	  2.4797585E+01	  1.4292589E+02	  0.0000000E+00	  0.0000000E+00
    4.1000	  5.0356512E+00	  0.0000000E+00	  0.0000000E+00	  6.2744844E-01	  5.2241083E-02	  5.0288162E+00	  4.4300802E-02	 -7.9464586E-03	  0.0000000E+00	  0.0000000E+00	 -9.5235771E-03	 -2.0140284E-04	  0.0000000E+00	  0.0000000E+00	  0.0000000E+00	  0.0000000E+00	  0.0000000E+00	  0.0000000E+00	  0.0000000E+00	  5.9563117E+00	  4.3825615E+01	 -1.1570299E+00	 -6.2664800E+03	  5.8930683E+01	  7.3464331E+02	 -3.4600775E+02	  4.3605732E+01	  1.6958423E+02	  0.0000000E+00	  0.0000000E+00
    4.2000	  5.0838184E+00	  0.0000000E+00	  0.0000000E+00	  6.5903127E-01	  5.3001851E-02	  5.1564384E+00	  1.5088379E-02	 -8.3280057E-03	  0.0000000E+00	  0.0000000E+00	 -9.7812805E-03	 -2.6867099E-04	  0.0000000E+00	  0.0000000E+00	  0.0000000E+00	  0.0000000E+00	  0.0000000E+00	  0.0000000E+00	  0.0000000E+00	  6.9711251E+00	  3.1334139E+01	 -1.4978709E+00	 -6.2724937E+03	  7.7751114E+01	  3.3966678E+02	 -4.8756000E+02	  5.9300724E+01	  2.1099922E+02	  0.0000000E+00	  0.0000000E+00
    4.3000	  5.1319857E+00	  0.0000000E+00	  0.0000000E+00	  6.9099653E-01	  5.3518776E-02	  5.2521167E+00	  1.3238989E-02	 -9.2359027E-03	  0.0000000E+00	  0.0000000E+00	 -1.0505968E-02	 -2.8608780E-04	  0.0000000E+00	  0.0000000E+00	  0.0000000E+00	  0.0000000E+00	  0.0000000E+00	  0.0000000E+00	  0.0000000E+00	  2.7333219E+00	  1.6991964E+01	 -1.4208701E+00	 -6.2428003E+03	  7.6260880E+01	 -2.0317352E+02	 -3.9659946E+02	  6.5433540E+01	  2.0063156E+02	  0.0000000E+00	  0.0000000E+00
    4.4000	  5.1801524E+00	  0.0000000E+00	  0.0000000E+00	  7.2318041E-01	  5.3711664E-02	  5.2508717E+00	  3.8802292E-02	 -1.0195254E-02	  0.0000000E+00	  0.0000000E+00	 -1.1543875E-02	 -2.6816857E-04	  0.0000000E+00	  0.0000000E+00	  0.0000000E+00	  0.0000000E+00	  0.0000000E+00	  0.0000000E+00	  0.0000000E+00	 -2.4688644E+00	  2.1059601E+01	 -7.8761184E-01	 -6.1909922E+03	  5.3109760E+01	 -2.7259088E+02	 -1.7535136E+02	  6.1917656E+01	  1.6239882E+02	  0.0000000E+00	  0.0000000E+00
    4.5000	  5.2283192E+00	  0.0000000E+00	  0.0000000E+00	  7.5544620E-01	  5.3869866E-02	  5.1934638E+00	  7.1311027E-02	 -1.1301073E-02	  0.0000000E+00	  0.0000000E+00	 -1.2728936E-02	 -2.4171820E-04	  0.0000000E+00	  0.0000000E+00	  0.0000000E+00	  0.0000000E+00	  0.0000000E+00	  0.0000000E+00	  0.0000000E+00	 -2.5778213E+00	  1.3877218E+00	 -2.8631949E-01	 -6.1385571E+03	  3.2123478E+01	 -1.0353231E+03	  2.9857498E+01	  5.3440243E+01	  1.5718822E+02	  0.0000000E+00	  0.0000000E+00
    4.6000	  5.2764864E+00	  0.0000000E+00	  0.0000000E+00	  7.8793061E-01	  5.4502923E-02	  5.1975665E+00	  9.7564377E-02	 -1.1727646E-02	  0.0000000E+00	  0.0000000E+00	 -1.3722121E-02	 -2.2787806E-04	  0.0000000E+00	  0.0000000E+00	  0.0000000E+00	  0.0000000E+00	  0.0000000E+00	  0.0000000E+00	  0.0000000E+00	  3.8900034E+00	 -1.4968487E+01	  7.7129103E-02	 -6.1100034E+03	  1.6894505E+01	 -1.6537483E+03	  1.3546117E+02	  4.5879761E+01	  2.4880228E+02	  0.0000000E+00	  0.0000000E+00
    4.7000	  5.3246536E+00	  0.0000000E+00	  0.0000000E+00	  8.2098871E-01	  5.5825315E-02	  5.3467345E+00	  1.2328737E-01	 -1.2117818E-02	  0.0000000E+00	  0.0000000E+00	 -1.4096124E-02	 -2.3790369E-04	  0.0000000E+00	  0.0000000E+00	  0.0000000E+00	  0.0000000E+00	  0.0000000E+00	  0.0000000E+00	  0.0000000E+00	  1.1861018E+01	 -2.8951147E+00	  4.3823200E-01	 -6.1185864E+03	  5.8824730E+00	 -1.3397915E+03	  1.3855687E+02	  4.2767845E+01	  3.8287234E+02	  0.0000000E+00	  0.0000000E+00
    4.8000	  5.3728204E+00	  0.0000000E+00	  0.0000000E+00	  8.5500306E-01	  5.7566073E-02	  5.5970311E+00	  1.5714276E-01	 -1.4878652E-02	  0.0000000E+00	  0.0000000E+00	 -1.3637726E-02	 -2.7211301E-04	  0.0000000E+00	  0.0000000E+00	  0.0000000E+00	  0.0000000E+00	  0.0000000E+00	  0.0000000E+00	  0.0000000E+00	  1.3961323E+01	 -5.7935905E-01	  1.7298564E-01	 -6.1584219E+03	  1.7926567E+01	 -1.1638342E+03	  6.6975548E+01	  4.4750252E+01	  4.3025909E+02	  0.0000000E+00	  0.0000000E+00
    4.9000	  5.4209871E+00	  0.0000000E+00	  0.0000000E+00	  8.9013755E-01	  5.9597336E-02	  5.8248844E+00	  1.9287163E-01	 -1.9252660E-02	  0.0000000E+00	  0.0000000E+00	 -1.2499803E-02	 -3.1246024E-04	  0.0000000E+00	  0.0000000E+00	  0.0000000E+00	  0.0000000E+00	  0.0000000E+00	  0.0000000E+00	  0.0000000E+00	  1.0374938E+01	  7.5715399E+00	 -5.1854718E-01	 -6.2124067E+03	  4.4880184E+01	 -7.1868365E+02	 -5.2318394E+01	  5.2046917E+01	  3.9660083E+02	  0.0000000E+00	  0.0000000E+00
    5.0000	  5.4691544E+00	  0.0000000E+00	  0.0000000E+00	  9.2652875E-01	  6.1670173E-02	  5.9883614E+00	  2.0993920E-01	 -2.2462793E-02	  0.0000000E+00	  0.0000000E+00	 -1.1101067E-02	 -3.3137258E-04	  0.0000000E+00	  0.0000000E+00	  0.0000000E+00	  0.0000000E+00	  0.0000000E+00	  0.0000000E+00	  0.0000000E+00	  8.0137644E+00	  3.5351624E+01	 -9.5947903E-01	 -6.2580918E+03	  6.2193123E+01	  3.0606445E+02	 -1.7240056E+02	  6.4058167E+01	  3.7475436E+02	  0.0000000E+00	  0.0000000E+00
    5.1000	  5.4386411E+00	  0.0000000E+00	  0.0000000E+00	  9.6412212E-01	  6.3649334E-02	  6.1450167E+00	  1.9468330E-01	 -2.3563258E-02	  0.0000000E+00	  0.0000000E+00	 -9.8022334E-03	 -3.0889706E-04	  0.0000000E+00	  0.0000000E+00	  0.0000000E+00	  0.0000000E+00	  0.0000000E+00	  0.0000000E+00	  0.0000000E+00	  9.5068569E+00	  3.7089493E+01	 -1.0376567E+00	 -6.2744941E+03	  6.2455086E+01	  5.2299097E+02	 -2.0998050E+02	  7.6711029E+01	  3.8531036E+02	  0.0000000E+00	  0.0000000E+00
    5.2000	  5.4081283E+00	  0.0000000E+00	  0.0000000E+00	  1.0029449E+00	  6.5814234E-02	  6.3502059E+00	  1.5718882E-01	 -2.2112370E-02	  0.0000000E+00	  0.0000000E+00	 -8.6389799E-03	 -2.4110956E-04	  0.0000000E+00	  0.0000000E+00	  0.0000000E+00	  0.0000000E+00	  0.0000000E+00	  0.0000000E+00	  0.0000000E+00	  1.2799714E+01	  2.5747034E+01	 -6.0461116E-01	 -6.2550601E+03	  4.0146893E+01	  2.8600134E+02	 -9.4072685E+01	  8.4111076E+01	  3.9725128E+02	  0.0000000E+00	  0.0000000E+00
    5.3000	  5.3776150E+00	  0.0000000E+00	  0.0000000E+00	  1.0430791E+00	  6.7994475E-02	  6.6039720E+00	  1.1851573E-01	 -1.8444194E-02	  0.0000000E+00	  0.0000000E+00	 -7.4484861E-03	 -1.4773039E-04	  0.0000000E+00	  0.0000000E+00	  0.0000000E+00	  0.0000000E+00	  0.0000000E+00	  0.0000000E+00	  0.0000000E+00	  1.4016910E+01	  2.9758501E+01	  4.6456406E-01	 -6.2089590E+03	 -4.9193969E+00	  4.4901025E+02	  1.5430930E+02	  8.1826370E+01	  3.5962344E+02	  0.0000000E+00	  0.0000000E+00
    5.4000	  5.3471022E+00	  0.0000000E+00	  0.0000000E+00	  1.0844700E+00	  6.9923528E-02	  6.8363810E+00	  8.7862894E-02	 -1.4307276E-02	  0.0000000E+00	  0.0000000E+00	 -6.1331424E-03	 -6.7177127E-05	  0.0000000E+00	  0.0000000E+00	  0.0000000E+00	  0.0000000E+00	  0.0000000E+00	  0.0000000E+00	  0.0000000E+00	  1.0504781E+01	  1.9532007E+01	  1.2577616E+00	 -6.1551172E+03	 -3.9749828E+01	  2.0961784E+02	  4.0648233E+02	  6.9863487E+01	  2.5281627E+02	  0.0000000E+00	  0.0000000E+00
    5.5000	  5.3165889E+00	  0.0000000E+00	  0.0000000E+00	  1.1269265E+00	  7.1520887E-02	  6.9819980E+00	  6.1656717E-02	 -1.0005540E-02	  0.0000000E+00	  0.0000000E+00	 -4.6798657E-03	 -3.1565862E-05	  0.0000000E+00	  0.0000000E+00	  0.0000000E+00	  0.0000000E+00	  0.0000000E+00	  0.0000000E+00	  0.0000000E+00	  5.5203552E+00	  7.7962012E+00	  1.3104513E+00	 -6.1181377E+03	 -4.5624283E+01	 -3.4052788E+01	  5.0902319E+02	  5.4549118E+01	  1.6501239E+02	  0.0000000E+00	  0.0000000E+00
    5.6000	  5.2860756E+00	  0.0000000E+00	  0.0000000E+00	  1.1702299E+00	  7.2668478E-02	  7.0582204E+00	  3.8095664E-02	 -5.9243054E-03	  0.0000000E+00	  0.0000000E+00	 -3.0911076E-03	 -5.0515791E-05	  0.0000000E+00	  0.0000000E+00	  0.0000000E+00	  0.0000000E+00	  0.0000000E+00	  0.0000000E+00	  0.0000000E+00	  3.3157911E+00	  2.0277498E+01	  1.0394396E+00	 -6.1153726E+03	 -3.3106812E+01	  4.7268771E+02	  3.9603314E+02	  4.4842709E+01	  1.7008244E+02	  0.0000000E+00	  0.0000000E+00
    5.7000	  5.2555628E+00	  0.0000000E+00	  0.0000000E+00	  1.2140250E+00	  7.3322371E-02	  7.1160374E+00	  2.5701851E-02	 -4.8576742E-03	  0.0000000E+00	  0.0000000E+00	 -1.4085539E-03	 -1.1023809E-04	  0.0000000E+00	  0.0000000E+00	  0.0000000E+00	  0.0000000E+00	  0.0000000E+00	  0.0000000E+00	  0.0000000E+00	  2.9939427E+00	  2.4998898E+01	  2.1159467E-01	 -6.1460806E+03	  2.0264068E+00	  8.0683246E+02	  1.2488791E+02	  4.6478516E+01	  2.1336800E+02	  0.0000000E+00	  0.0000000E+00
    5.8000	  5.2250495E+00	  0.0000000E+00	  0.0000000E+00	  1.2581754E+00	  7.3817104E-02	  7.1660304E+00	  3.6542412E-02	 -8.1614899E-03	  0.0000000E+00	  0.0000000E+00	  2.0451227E-04	 -1.7588845E-04	  0.0000000E+00	  0.0000000E+00	  0.0000000E+00	  0.0000000E+00	  0.0000000E+00	  0.0000000E+00	  0.0000000E+00	  2.4115770E+00	  2.6681784E+01	 -8.3871740E-01	 -6.1959146E+03	  4.4820179E+01	  1.0727327E+03	 -1.8439801E+02	  6.0218174E+01	  2.3503674E+02	  0.0000000E+00	  0.0000000E+00