
Predictions were generated on 05-Dec-2024 at 12:08:04 using OpenFAST, compiled as a 64-bit application using single precision at commit v3.2.1
 linked with  NWTC Subroutine Library; ElastoDyn; InflowWind; AeroDyn; ServoDyn

Description from the FAST input file: OpenFast Main File Tutorial 1

Time	Wind1VelX	Wind1VelY	Wind1VelZ	Azimuth	RotSpeed	GenSpeed	OoPDefl1	IPDefl1	TwstDefl1	BldPitch1	TTDspFA	TTDspSS	TTDspTwst	PtfmSurge	PtfmSway	PtfmHeave	PtfmRoll	PtfmPitch	PtfmYaw	RotTorq	TwrBsFxt	TwrBsFyt	TwrBsFzt	TwrBsMxt	TwrBsMyt	TwrBsMzt	RootMxb1	RootMyb1	GenPwr	GenTq
(s)	(m/s)	(m/s)	(m/s)	(deg)	(rpm)	(rpm)	(m)	(m)	(deg)	(deg)	(m)	(m)	(deg)	(m)	(m)	(m)	(deg)	(deg)	(deg)	(kN-m)	(kN)	(kN)	(kN)	(kN-m)	(kN-m)	(kN-m)	(kN-m)	(kN-m)	(kW)	(kN-m)
    0.0000	  5.0444870E+00	  0.0000000E+00	  0.0000000E+00	  0.0000000E+00	  0.0000000E+00	  0.0000000E+00	  0.0000000E+00	  0.0000000E+00	  0.0000000E+00	  0.0000000E+00	  0.0000000E+00	  0.0000000E+00	  0.0000000E+00	  0.0000000E+00	  0.0000000E+00	  0.0000000E+00	  0.0000000E+00	  0.0000000E+00	  0.0000000E+00	  1.1896771E-04	 -1.7842075E+01	  5.6396395E-02	 -6.0896377E+03	 -1.3643084E+00	 -4.0932224E+02	  1.9810706E-05	  4.4895139E+00	  6.1744541E+01	  0.0000000E+00	  0.0000000E+00
    0.1000	  5.0331860E+00	  0.0000000E+00	  0.0000000E+00	  3.8249057E-04	  9.5033005E-04	  4.2128310E-02	  8.9479871E-03	  9.3747012E-04	  0.0000000E+00	  0.0000000E+00	 -1.6586723E-04	  7.0404576E-07	  0.0000000E+00	  0.0000000E+00	  0.0000000E+00	  0.0000000E+00	  0.0000000E+00	  0.0000000E+00	  0.0000000E+00	  5.2745862E+00	  2.4263048E+01	 -2.9800600E-01	 -6.1147832E+03	  9.1344938E+00	  8.0684686E+02	 -1.0519593E+02	 -1.3047631E+00	  1.5612633E+02	  0.0000000E+00	  0.0000000E+00
    0.2000	  5.0218849E+00	  0.0000000E+00	  0.0000000E+00	  3.0052831E-04	 -8.6124561E-04	  7.7412210E-02	  3.7146010E-02	 -7.9501059E-04	  0.0000000E+00	  0.0000000E+00	 -6.3479872E-04	  4.4386429E-06	  0.0000000E+00	  0.0000000E+00	  0.0000000E+00	  0.0000000E+00	  0.0000000E+00	  0.0000000E+00	  0.0000000E+00	 -4.8632283E+00	  3.9483295E+01	  5.1873267E-01	 -6.1717661E+03	 -1.1358340E+01	  1.3086584E+03	 -1.3230107E+02	  1.2761214E+00	  2.5288731E+02	  0.0000000E+00	  0.0000000E+00
    0.3000	  5.0105839E+00	  0.0000000E+00	  0.0000000E+00	  3.8249057E-04	  6.7247718E-04	 -3.7767101E-02	  8.6148717E-02	 -6.0756803E-03	  0.0000000E+00	  0.0000000E+00	 -1.3541298E-03	  1.2643457E-05	  0.0000000E+00	  0.0000000E+00	  0.0000000E+00	  0.0000000E+00	  0.0000000E+00	  0.0000000E+00	  0.0000000E+00	 -3.3022833E+00	  1.8623936E+01	 -1.5018286E+00	 -6.2339907E+03	  4.6763184E+01	  7.5097028E+02	 -2.3784021E+02	  8.0745697E+00	  2.8172360E+02	  0.0000000E+00	  0.0000000E+00
    0.4000	  4.9992828E+00	  0.0000000E+00	  0.0000000E+00	  3.5516982E-04	 -1.0311977E-04	 -5.2173253E-02	  1.4428161E-01	 -1.1348209E-02	  0.0000000E+00	  0.0000000E+00	 -2.4671082E-03	  3.6627491E-05	  0.0000000E+00	  0.0000000E+00	  0.0000000E+00	  0.0000000E+00	  0.0000000E+00	  0.0000000E+00	  0.0000000E+00	  8.3437288E-01	  5.4932930E+01	 -5.4237390E-01	 -6.2783423E+03	  1.9089075E+01	  1.7490685E+03	 -3.9056915E+02	  9.7878761E+00	  3.1791223E+02	  0.0000000E+00	  0.0000000E+00
    0.5000	  4.9879818E+00	  0.0000000E+00	  0.0000000E+00	  1.0381887E-03	  2.2909341E-03	  5.9999596E-02	  1.8630442E-01	 -1.5199803E-02	  0.0000000E+00	  0.0000000E+00	 -4.2978064E-03	  7.2221068E-05	  0.0000000E+00	  0.0000000E+00	  0.0000000E+00	  0.0000000E+00	  0.0000000E+00	  0.0000000E+00	  0.0000000E+00	  1.3066945E+01	  5.6594368E+01	 -1.7020631E-01	 -6.2839331E+03	 -1.8604520E-01	  1.6233804E+03	 -2.6839969E+02	  1.6351334E+01	  3.6067978E+02	  0.0000000E+00	  0.0000000E+00
    0.6000	  4.9766808E+00	  0.0000000E+00	  0.0000000E+00	  3.1145662E-03	  4.7956049E-03	  4.1356820E-01	  2.0106596E-01	 -1.5955480E-02	  0.0000000E+00	  0.0000000E+00	 -6.7893318E-03	  1.0528231E-04	  0.0000000E+00	  0.0000000E+00	  0.0000000E+00	  0.0000000E+00	  0.0000000E+00	  0.0000000E+00	  0.0000000E+00	  2.3417006E+01	  1.2572016E+01	  1.4020349E-02	 -6.2494272E+03	 -1.6831717E+01	  7.2403389E+01	  2.4350567E+01	  9.4741154E+00	  4.1811963E+02	  0.0000000E+00	  0.0000000E+00
    0.7000	  4.9653797E+00	  0.0000000E+00	  0.0000000E+00	  6.9667925E-03	  8.3269048E-03	  8.4155345E-01	  1.9911923E-01	 -1.2301758E-02	  0.0000000E+00	  0.0000000E+00	 -9.3269348E-03	  1.2503238E-04	  0.0000000E+00	  0.0000000E+00	  0.0000000E+00	  0.0000000E+00	  0.0000000E+00	  0.0000000E+00	  0.0000000E+00	  2.1904673E+01	  2.5062544E+01	  2.5843453E+00	 -6.1930820E+03	 -9.9502602E+01	  1.1130965E+02	  4.4375732E+02	 -3.5437565E+00	  4.8580917E+02	  0.0000000E+00	  0.0000000E+00
    0.8000	  4.9540787E+00	  0.0000000E+00	  0.0000000E+00	  1.2977359E-02	  1.1115993E-02	  1.2063043E+00	  1.8850839E-01	 -8.7301536E-03	  0.0000000E+00	  0.0000000E+00	 -1.1250689E-02	  1.0825472E-04	  0.0000000E+00	  0.0000000E+00	  0.0000000E+00	  0.0000000E+00	  0.0000000E+00	  0.0000000E+00	  0.0000000E+00	  1.5814376E+01	  2.0369333E+01	  1.9672034E+00	 -6.1355039E+03	 -8.5019257E+01	 -2.8938074E+02	  7.5571698E+02	 -1.4010493E+01	  4.3779520E+02	  0.0000000E+00	  0.0000000E+00
    0.9000	  4.9427776E+00	  0.0000000E+00	  0.0000000E+00	  2.0135397E-02	  1.3113755E-02	  1.3584608E+00	  1.6518496E-01	 -7.6323510E-03	  0.0000000E+00	  0.0000000E+00	 -1.2240005E-02	  4.8148599E-05	  0.0000000E+00	  0.0000000E+00	  0.0000000E+00	  0.0000000E+00	  0.0000000E+00	  0.0000000E+00	  0.0000000E+00	  1.9778653E+00	 -2.1005507E+01	  1.7177380E+00	 -6.1016001E+03	 -6.8469711E+01	 -1.6335121E+03	  7.4441125E+02	 -2.1952765E+01	  3.0244424E+02	  0.0000000E+00	  0.0000000E+00
    1.0000	  4.9314766E+00	  0.0000000E+00	  0.0000000E+00	  2.8768755E-02	  1.5326624E-02	  1.4026706E+00	  1.2401231E-01	 -5.1214066E-03	  0.0000000E+00	  0.0000000E+00	 -1.2373842E-02	 -4.1844633E-05	  0.0000000E+00	  0.0000000E+00	  0.0000000E+00	  0.0000000E+00	  0.0000000E+00	  0.0000000E+00	  0.0000000E+00	  5.2676816E+00	 -5.9019661E-01	  9.6741056E-01	 -6.1110605E+03	 -3.4332359E+01	 -1.0690802E+03	  5.1457971E+02	 -1.4940052E+01	  2.5155624E+02	  0.0000000E+00	  0.0000000E+00
    1.1000	  4.9296517E+00	  0.0000000E+00	  0.0000000E+00	  3.8303699E-02	  1.6449908E-02	  1.5621603E+00	  7.1173787E-02	 -2.9140988E-03	  0.0000000E+00	  0.0000000E+00	 -1.1982274E-02	 -1.5335625E-04	  0.0000000E+00	  0.0000000E+00	  0.0000000E+00	  0.0000000E+00	  0.0000000E+00	  0.0000000E+00	  0.0000000E+00	  1.1081071E+01	  1.8160692E+01	  4.4861564E-01	 -6.1573740E+03	 -2.6047266E+00	 -4.3518793E+02	  1.5365659E+02	 -2.9769447E+00	  2.5969348E+02	  0.0000000E+00	  0.0000000E+00
    1.2000	  4.9278269E+00	  0.0000000E+00	  0.0000000E+00	  4.8658267E-02	  1.8123744E-02	  1.7752575E+00	  2.8761076E-02	 -2.5634652E-03	  0.0000000E+00	  0.0000000E+00	 -1.1342259E-02	 -2.7244620E-04	  0.0000000E+00	  0.0000000E+00	  0.0000000E+00	  0.0000000E+00	  0.0000000E+00	  0.0000000E+00	  0.0000000E+00	  1.1309175E+01	  1.8288827E+00	 -5.8170265E-01	 -6.2171812E+03	  4.5947773E+01	 -7.4773718E+02	 -2.2183403E+02	  8.8156834E+00	  2.2742715E+02	  0.0000000E+00	  0.0000000E+00
    1.3000	  4.9260020E+00	  0.0000000E+00	  0.0000000E+00	  5.9723172E-02	  1.8439135E-02	  1.9324154E+00	  1.4072118E-02	 -2.5796688E-03	  0.0000000E+00	  0.0000000E+00	 -1.0722491E-02	 -3.7346207E-04	  0.0000000E+00	  0.0000000E+00	  0.0000000E+00	  0.0000000E+00	  0.0000000E+00	  0.0000000E+00	  0.0000000E+00	  3.5586410E+00	  3.2998302E+01	 -1.6950964E+00	 -6.2659678E+03	  9.5399948E+01	  2.8286740E+02	 -5.2742053E+02	  1.8951597E+01	  1.6461253E+02	  0.0000000E+00	  0.0000000E+00
    1.4000	  4.9241772E+00	  0.0000000E+00	  0.0000000E+00	  7.0651472E-02	  1.8000502E-02	  1.8601836E+00	  1.7778730E-02	 -3.8866787E-03	  0.0000000E+00	  0.0000000E+00	 -1.0610842E-02	 -4.3557546E-04	  0.0000000E+00	  0.0000000E+00	  0.0000000E+00	  0.0000000E+00	  0.0000000E+00	  0.0000000E+00	  0.0000000E+00	 -1.0578497E+01	  4.9065628E+01	 -2.4866793E+00	 -6.2804238E+03	  1.3108418E+02	  7.6658600E+02	 -7.2996143E+02	  2.2809179E+01	  8.7861023E+01	  0.0000000E+00	  0.0000000E+00
    1.5000	  4.9223528E+00	  0.0000000E+00	  0.0000000E+00	  8.1197284E-02	  1.6993435E-02	  1.6179298E+00	  2.2410372E-02	 -5.2706422E-03	  0.0000000E+00	  0.0000000E+00	 -1.1404151E-02	 -4.4269825E-04	  0.0000000E+00	  0.0000000E+00	  0.0000000E+00	  0.0000000E+00	  0.0000000E+00	  0.0000000E+00	  0.0000000E+00	 -1.3423098E+01	  1.0464008E+01	 -3.3290992E+00	 -6.2539766E+03	  1.5577240E+02	 -4.7942377E+02	 -7.0858887E+02	  2.4102715E+01	  7.4317429E+01	  0.0000000E+00	  0.0000000E+00
    1.6000	  4.9205279E+00	  0.0000000E+00	  0.0000000E+00	  9.1169357E-02	  1.6439240E-02	  1.4439911E+00	  2.9791553E-02	 -4.4004805E-03	  0.0000000E+00	  0.0000000E+00	 -1.2963745E-02	 -3.9137425E-04	  0.0000000E+00	  0.0000000E+00	  0.0000000E+00	  0.0000000E+00	  0.0000000E+00	  0.0000000E+00	  0.0000000E+00	 -3.5687578E+00	  8.3347692E+00	 -1.6238728E+00	 -6.2022129E+03	  9.4414047E+01	 -7.8810919E+02	 -4.3010327E+02	  2.1527491E+01	  1.9449768E+02	  0.0000000E+00	  0.0000000E+00
    1.7000	  4.9187031E+00	  0.0000000E+00	  0.0000000E+00	  1.0111412E-01	  1.6875995E-02	  1.5143220E+00	  5.4864172E-02	 -4.0194630E-03	  0.0000000E+00	  0.0000000E+00	 -1.4687362E-02	 -3.0793302E-04	  0.0000000E+00	  0.0000000E+00	  0.0000000E+00	  0.0000000E+00	  0.0000000E+00	  0.0000000E+00	  0.0000000E+00	  1.0513630E+01	  8.6021700E+00	  2.5156131E-02	 -6.1456396E+03	  2.7733768E+01	 -1.0285990E+03	 -1.2163107E+01	  1.3935687E+01	  3.0768451E+02	  0.0000000E+00	  0.0000000E+00
    1.8000	  4.9168782E+00	  0.0000000E+00	  0.0000000E+00	  1.1155064E-01	  1.8097956E-02	  1.7661757E+00	  1.0302741E-01	 -6.5890853E-03	  0.0000000E+00	  0.0000000E+00	 -1.5875859E-02	 -2.2612182E-04	  0.0000000E+00	  0.0000000E+00	  0.0000000E+00	  0.0000000E+00	  0.0000000E+00	  0.0000000E+00	  0.0000000E+00	  1.4660876E+01	 -2.4814569E+01	  9.3647999E-01	 -6.1070527E+03	 -1.4259062E+01	 -2.1397354E+03	  3.4640750E+02	  4.2377310E+00	  3.0194843E+02	  0.0000000E+00	  0.0000000E+00
    1.9000	  4.9150534E+00	  0.0000000E+00	  0.0000000E+00	  1.2305268E-01	  2.0214383E-02	  2.0074859E+00	  1.5705879E-01	 -9.3970411E-03	  0.0000000E+00	  0.0000000E+00	 -1.6144805E-02	 -1.6366964E-04	  0.0000000E+00	  0.0000000E+00	  0.0000000E+00	  0.0000000E+00	  0.0000000E+00	  0.0000000E+00	  0.0000000E+00	  1.1088537E+01	 -1.1724528E+01	  1.2815642E+00	 -6.1070444E+03	 -3.1824482E+01	 -1.7742448E+03	  4.6542880E+02	 -2.9516318E+00	  2.8543552E+02	  0.0000000E+00	  0.0000000E+00
    2.0000	  4.9132285E+00	  0.0000000E+00	  0.0000000E+00	  1.3570219E-01	  2.1942357E-02	  2.1687689E+00	  1.8833598E-01	 -1.1402169E-02	  0.0000000E+00	  0.0000000E+00	 -1.5592095E-02	 -1.2491227E-04	  0.0000000E+00	  0.0000000E+00	  0.0000000E+00	  0.0000000E+00	  0.0000000E+00	  0.0000000E+00	  0.0000000E+00	  6.5380583E+00	  1.1937861E+01	  5.8185643E-01	 -6.1453057E+03	 -1.2683401E+01	 -9.7765985E+02	  3.5695618E+02	 -3.2369120E+00	  3.3302771E+02	  0.0000000E+00	  0.0000000E+00
    2.1000	  4.9069118E+00	  0.0000000E+00	  0.0000000E+00	  1.4947185E-01	  2.4036983E-02	  2.2819581E+00	  1.8851396E-01	 -1.2905592E-02	  0.0000000E+00	  0.0000000E+00	 -1.4450501E-02	 -1.0111871E-04	  0.0000000E+00	  0.0000000E+00	  0.0000000E+00	  0.0000000E+00	  0.0000000E+00	  0.0000000E+00	  0.0000000E+00	  7.2761025E+00	 -1.4510697E+00	  3.0633468E-02	 -6.2034106E+03	  4.2483244E+00	 -1.1570322E+03	  1.6600439E+02	  3.6482182E+00	  4.1346350E+02	  0.0000000E+00	  0.0000000E+00
    2.2000	  4.9005947E+00	  0.0000000E+00	  0.0000000E+00	  1.6458023E-01	  2.6316341E-02	  2.4788013E+00	  1.7590894E-01	 -1.3081944E-02	  0.0000000E+00	  0.0000000E+00	 -1.2823038E-02	 -7.8682075E-05	  0.0000000E+00	  0.0000000E+00	  0.0000000E+00	  0.0000000E+00	  0.0000000E+00	  0.0000000E+00	  0.0000000E+00	  1.4327132E+01	  2.0531744E+01	  1.3549268E-01	 -6.2579688E+03	  3.5972440E-01	 -2.7142575E+02	  1.8860041E+01	  1.3261867E+01	  4.7045096E+02	  0.0000000E+00	  0.0000000E+00
    2.3000	  4.8942780E+00	  0.0000000E+00	  0.0000000E+00	  1.8105465E-01	  2.8654382E-02	  2.7826698E+00	  1.6362935E-01	 -1.3291474E-02	  0.0000000E+00	  0.0000000E+00	 -1.0898193E-02	 -5.5194065E-05	  0.0000000E+00	  0.0000000E+00	  0.0000000E+00	  0.0000000E+00	  0.0000000E+00	  0.0000000E+00	  0.0000000E+00	  1.7345482E+01	  4.9213409E+01	  3.5194397E-01	 -6.2835791E+03	 -7.6729326E+00	  7.9930457E+02	 -3.8659042E+01	  2.0177296E+01	  4.0508511E+02	  0.0000000E+00	  0.0000000E+00
    2.4000	  4.8879609E+00	  0.0000000E+00	  0.0000000E+00	  1.9897705E-01	  3.1074757E-02	  3.0762668E+00	  1.4247215E-01	 -1.3181661E-02	  0.0000000E+00	  0.0000000E+00	 -9.0394514E-03	 -3.2249911E-05	  0.0000000E+00	  0.0000000E+00	  0.0000000E+00	  0.0000000E+00	  0.0000000E+00	  0.0000000E+00	  0.0000000E+00	  1.3625787E+01	  2.9430201E+01	  5.1609918E-02	 -6.2674243E+03	 -7.1969855E-01	  4.0042200E+02	 -3.2301918E+01	  2.1583551E+01	  2.4581042E+02	  0.0000000E+00	  0.0000000E+00
    2.5000	  4.8816442E+00	  0.0000000E+00	  0.0000000E+00	  2.1821088E-01	  3.2866485E-02	  3.2637508E+00	  9.9712119E-02	 -9.3950164E-03	  0.0000000E+00	  0.0000000E+00	 -7.5408886E-03	 -6.0530228E-06	  0.0000000E+00	  0.0000000E+00	  0.0000000E+00	  0.0000000E+00	  0.0000000E+00	  0.0000000E+00	  0.0000000E+00	  6.5787749E+00	  2.6083799E+01	  7.3046140E-02	 -6.2199727E+03	 -3.5648973E+00	  3.6681229E+02	  2.7007233E+01	  1.7955030E+01	  1.7433174E+02	  0.0000000E+00	  0.0000000E+00
    2.6000	  4.8753276E+00	  0.0000000E+00	  0.0000000E+00	  2.3829162E-01	  3.3895738E-02	  3.3300471E+00	  4.2427573E-02	 -3.0241543E-03	  0.0000000E+00	  0.0000000E+00	 -6.4133382E-03	  1.9789475E-05	  0.0000000E+00	  0.0000000E+00	  0.0000000E+00	  0.0000000E+00	  0.0000000E+00	  0.0000000E+00	  0.0000000E+00	  1.1770220E+00	  2.8909670E+01	  3.0992419E-01	 -6.1615562E+03	 -1.3912953E+01	  4.4639240E+02	  1.3933862E+02	  1.1755121E+01	  2.1069937E+02	  0.0000000E+00	  0.0000000E+00
    2.7000	  4.8690104E+00	  0.0000000E+00	  0.0000000E+00	  2.5872755E-01	  3.4184270E-02	  3.3266377E+00	 -2.3442210E-04	  1.3405378E-03	  0.0000000E+00	  0.0000000E+00	 -5.3467541E-03	  3.4397151E-05	  0.0000000E+00	  0.0000000E+00	  0.0000000E+00	  0.0000000E+00	  0.0000000E+00	  0.0000000E+00	  0.0000000E+00	 -1.0562501E+00	 -1.9353459E+00	  5.6544799E-01	 -6.1154424E+03	 -2.4211592E+01	 -4.1836151E+02	  2.4817989E+02	  5.7201338E+00	  2.2317509E+02	  0.0000000E+00	  0.0000000E+00
    2.8000	  4.8626938E+00	  0.0000000E+00	  0.0000000E+00	  2.7927276E-01	  3.4277834E-02	  3.3083460E+00	 -3.5652400E-03	  2.0217316E-03	  0.0000000E+00	  0.0000000E+00	 -4.0145675E-03	  3.1390278E-05	  0.0000000E+00	  0.0000000E+00	  0.0000000E+00	  0.0000000E+00	  0.0000000E+00	  0.0000000E+00	  0.0000000E+00	 -5.0276589E-01	  1.5765983E+00	  8.1008160E-01	 -6.1035869E+03	 -3.0792883E+01	 -2.0698015E+02	  2.4296948E+02	  3.6455951E+00	  1.7756206E+02	  0.0000000E+00	  0.0000000E+00
    2.9000	  4.8563766E+00	  0.0000000E+00	  0.0000000E+00	  2.9984528E-01	  3.4322288E-02	  3.3156247E+00	  2.4596831E-02	 -9.3862659E-04	  0.0000000E+00	  0.0000000E+00	 -2.5227885E-03	  1.0241596E-05	  0.0000000E+00	  0.0000000E+00	  0.0000000E+00	  0.0000000E+00	  0.0000000E+00	  0.0000000E+00	  0.0000000E+00	  1.1826661E+00	  2.9304224E+01	  3.7105921E-01	 -6.1305854E+03	 -1.2673752E+01	  7.7762799E+02	  4.6670994E+01	  8.3709631E+00	  1.1837617E+02	  0.0000000E+00	  0.0000000E+00
    3.0000	  4.8500600E+00	  0.0000000E+00	  0.0000000E+00	  3.2049978E-01	  3.4536645E-02	  3.3445473E+00	  5.7348199E-02	 -6.0334597E-03	  0.0000000E+00	  0.0000000E+00	 -1.3326898E-03	 -1.7035745E-05	  0.0000000E+00	  0.0000000E+00	  0.0000000E+00	  0.0000000E+00	  0.0000000E+00	  0.0000000E+00	  0.0000000E+00	  1.8444271E+00	  2.2961187E+01	 -6.1195892E-01	 -6.1826079E+03	  2.4304176E+01	  7.8523340E+02	 -2.8043735E+02	  1.9540180E+01	  1.2482917E+02	  0.0000000E+00	  0.0000000E+00
    3.1000	  4.8824258E+00	  0.0000000E+00	  0.0000000E+00	  3.4134552E-01	  3.4946080E-02	  3.3843126E+00	  8.4128663E-02	 -1.0034440E-02	  0.0000000E+00	  0.0000000E+00	 -7.9743401E-04	 -2.5580273E-05	  0.0000000E+00	  0.0000000E+00	  0.0000000E+00	  0.0000000E+00	  0.0000000E+00	  0.0000000E+00	  0.0000000E+00	  2.4692311E+00	  3.1831001E+01	 -1.4134758E+00	 -6.2387021E+03	  5.3167934E+01	  1.1621991E+03	 -5.5711578E+02	  3.3680557E+01	  2.5959631E+02	  0.0000000E+00	  0.0000000E+00
    3.2000	  4.9147921E+00	  0.0000000E+00	  0.0000000E+00	  3.6240983E-01	  3.5329513E-02	  3.4305902E+00	  1.1539823E-01	 -1.3224248E-02	  0.0000000E+00	  0.0000000E+00	 -9.9097029E-04	  5.3031175E-07	  0.0000000E+00	  0.0000000E+00	  0.0000000E+00	  0.0000000E+00	  0.0000000E+00	  0.0000000E+00	  0.0000000E+00	  2.4104657E+00	  5.3493156E+01	 -1.4082913E+00	 -6.2740205E+03	  5.1532566E+01	  1.8114849E+03	 -6.1962146E+02	  4.4772568E+01	  4.0813733E+02	  0.0000000E+00	  0.0000000E+00
    3.3000	  4.9471579E+00	  0.0000000E+00	  0.0000000E+00	  3.8380197E-01	  3.6003705E-02	  3.4758570E+00	  1.5879855E-01	 -1.7436473E-02	  0.0000000E+00	  0.0000000E+00	 -1.8123311E-03	  5.8435970E-05	  0.0000000E+00	  0.0000000E+00	  0.0000000E+00	  0.0000000E+00	  0.0000000E+00	  0.0000000E+00	  0.0000000E+00	  2.8622477E+00	  3.7314251E+01	 -9.0215468E-01	 -6.2711133E+03	  2.7625366E+01	  1.2736105E+03	 -4.3896252E+02	  4.8632217E+01	  4.2481195E+02	  0.0000000E+00	  0.0000000E+00
    3.4000	  4.9795241E+00	  0.0000000E+00	  0.0000000E+00	  4.0574053E-01	  3.7265487E-02	  3.5568497E+00	  2.0104945E-01	 -2.0438273E-02	  0.0000000E+00	  0.0000000E+00	 -3.1057489E-03	  1.3402999E-04	  0.0000000E+00	  0.0000000E+00	  0.0000000E+00	  0.0000000E+00	  0.0000000E+00	  0.0000000E+00	  0.0000000E+00	  6.5994539E+00	  2.9862917E+01	  5.7215795E-02	 -6.2335947E+03	 -1.4469783E+01	  8.9344507E+02	 -1.1520440E+02	  4.5106060E+01	  3.7294424E+02	  0.0000000E+00	  0.0000000E+00
    3.5000	  5.0118899E+00	  0.0000000E+00	  0.0000000E+00	  4.2868996E-01	  3.9355069E-02	  3.7394595E+00	  2.1589614E-01	 -1.9792214E-02	  0.0000000E+00	  0.0000000E+00	 -4.6997904E-03	  2.0229623E-04	  0.0000000E+00	  0.0000000E+00	  0.0000000E+00	  0.0000000E+00	  0.0000000E+00	  0.0000000E+00	  0.0000000E+00	  1.3493691E+01	  3.4756187E+01	  1.2722741E+00	 -6.1788271E+03	 -6.4029343E+01	  8.0441083E+02	  2.2263943E+02	  3.6361073E+01	  3.6705698E+02	  0.0000000E+00	  0.0000000E+00
    3.6000	  5.0442557E+00	  0.0000000E+00	  0.0000000E+00	  4.5306009E-01	  4.2002562E-02	  4.0444136E+00	  1.9426899E-01	 -1.6114302E-02	  0.0000000E+00	  0.0000000E+00	 -6.2522045E-03	  2.3505319E-04	  0.0000000E+00	  0.0000000E+00	  0.0000000E+00	  0.0000000E+00	  0.0000000E+00	  0.0000000E+00	  0.0000000E+00	  1.8748573E+01	  6.4268003E+00	  1.9988191E+00	 -6.1296147E+03	 -9.4317749E+01	 -2.3452110E+02	  4.9076636E+02	  2.4922344E+01	  4.0947232E+02	  0.0000000E+00	  0.0000000E+00
    3.7000	  5.0766220E+00	  0.0000000E+00	  0.0000000E+00	  4.7912407E-01	  4.4799879E-02	  4.3888631E+00	  1.5721188E-01	 -1.0936737E-02	  0.0000000E+00	  0.0000000E+00	 -7.2333547E-03	  2.1544113E-04	  0.0000000E+00	  0.0000000E+00	  0.0000000E+00	  0.0000000E+00	  0.0000000E+00	  0.0000000E+00	  0.0000000E+00	  1.7487906E+01	 -4.5945554E+00	  2.2647173E+00	 -6.1093779E+03	 -1.0231870E+02	 -6.7825336E+02	  6.3550732E+02	  1.3737112E+01	  4.4640482E+02	  0.0000000E+00	  0.0000000E+00
    3.8000	  5.1089878E+00	  0.0000000E+00	  0.0000000E+00	  5.0674534E-01	  4.7172226E-02	  4.6569114E+00	  1.2853317E-01	 -7.1179690E-03	  0.0000000E+00	  0.0000000E+00	 -7.3408997E-03	  1.3896043E-04	  0.0000000E+00	  0.0000000E+00	  0.0000000E+00	  0.0000000E+00	  0.0000000E+00	  0.0000000E+00	  0.0000000E+00	  1.1047832E+01	  1.6872530E+01	  1.9514732E+00	 -6.1269570E+03	 -8.3456718E+01	 -3.7260796E+01	  6.0154370E+02	  7.2946892E+00	  3.9322156E+02	  0.0000000E+00	  0.0000000E+00
    3.9000	  5.1413541E+00	  0.0000000E+00	  0.0000000E+00	  5.3556877E-01	  4.8801325E-02	  4.7921491E+00	  1.0813954E-01	 -6.7899139E-03	  0.0000000E+00	  0.0000000E+00	 -6.8068625E-03	  1.7395014E-05	  0.0000000E+00	  0.0000000E+00	  0.0000000E+00	  0.0000000E+00	  0.0000000E+00	  0.0000000E+00	  0.0000000E+00	  4.0624633E+00	  1.9050770E+01	  8.8622499E-01	 -6.1722861E+03	 -3.4584618E+01	  1.6130019E+02	  3.6389322E+02	  9.8900099E+00	  2.4581453E+02	  0.0000000E+00	  0.0000000E+00
    4.0000	  5.1737199E+00	  0.0000000E+00	  0.0000000E+00	  5.6523913E-01	  5.0101575E-02	  4.8421888E+00	  8.1385553E-02	 -7.6531945E-03	  0.0000000E+00	  0.0000000E+00	 -6.2007844E-03	 -1.1661182E-04	  0.0000000E+00	  0.0000000E+00	  0.0000000E+00	  0.0000000E+00	  0.0000000E+00	  0.0000000E+00	  0.0000000E+00	  2.6115241E+00	  2.8089470E+01	 -4.2610174E-01	 -6.2265752E+03	  2.3829920E+01	  5.6548755E+02	 -7.7448826E+00	  2.2854635E+01	  1.5104692E+02	  0.0000000E+00	  0.0000000E+00
    4.1000	  5.1498671E+00	  0.0000000E+00	  0.0000000E+00	  5.9561980E-01	  5.1108260E-02	  4.9204421E+00	  4.4294924E-02	 -7.6380777E-03	  0.0000000E+00	  0.0000000E+00	 -6.0520731E-03	 -2.2685477E-04	  0.0000000E+00	  0.0000000E+00	  0.0000000E+00	  0.0000000E+00	  0.0000000E+00	  0.0000000E+00	  0.0000000E+00	  6.0773096E+00	  4.9876289E+01	 -1.1953506E+00	 -6.2664644E+03	  6.2523529E+01	  1.2514319E+03	 -3.4569666E+02	  4.1665688E+01	  1.7528777E+02	  0.0000000E+00	  0.0000000E+00
    4.2000	  5.1260147E+00	  0.0000000E+00	  0.0000000E+00	  6.2651956E-01	  5.1876448E-02	  5.0489244E+00	  1.4010620E-02	 -7.9553565E-03	  0.0000000E+00	  0.0000000E+00	 -6.5820562E-03	 -2.9199288E-04	  0.0000000E+00	  0.0000000E+00	  0.0000000E+00	  0.0000000E+00	  0.0000000E+00	  0.0000000E+00	  0.0000000E+00	  6.9426074E+00	  3.6634315E+01	 -1.5221620E+00	 -6.2724512E+03	  8.0782265E+01	  8.0763928E+02	 -4.8799649E+02	  5.7319324E+01	  2.1530988E+02	  0.0000000E+00	  0.0000000E+00
    4.3000	  5.1021619E+00	  0.0000000E+00	  0.0000000E+00	  6.5782917E-01	  5.2347977E-02	  5.1420455E+00	  1.2311290E-02	 -8.8902181E-03	  0.0000000E+00	  0.0000000E+00	 -7.7011292E-03	 -3.0752728E-04	  0.0000000E+00	  0.0000000E+00	  0.0000000E+00	  0.0000000E+00	  0.0000000E+00	  0.0000000E+00	  0.0000000E+00	  2.4523456E+00	  2.1495726E+01	 -1.4745578E+00	 -6.2427202E+03	  8.0006363E+01	  2.0252007E+02	 -3.9762036E+02	  6.3352837E+01	  2.0303201E+02	  0.0000000E+00	  0.0000000E+00
    4.4000	  5.0783091E+00	  0.0000000E+00	  0.0000000E+00	  6.8927532E-01	  5.2482698E-02	  5.1329241E+00	  3.8766738E-02	 -9.9370200E-03	  0.0000000E+00	  0.0000000E+00	 -9.2493398E-03	 -2.8750347E-04	  0.0000000E+00	  0.0000000E+00	  0.0000000E+00	  0.0000000E+00	  0.0000000E+00	  0.0000000E+00	  0.0000000E+00	 -2.9991987E+00	  2.4704597E+01	 -8.3073175E-01	 -6.1908765E+03	  5.6412174E+01	  5.7673649E+01	 -1.7681186E+02	  5.9762913E+01	  1.6274614E+02	  0.0000000E+00	  0.0000000E+00
    4.5000	  5.0544567E+00	  0.0000000E+00	  0.0000000E+00	  7.2077614E-01	  5.2560028E-02	  5.0657339E+00	  7.2091997E-02	 -1.1139133E-02	  0.0000000E+00	  0.0000000E+00	 -1.1050547E-02	 -2.5803363E-04	  0.0000000E+00	  0.0000000E+00	  0.0000000E+00	  0.0000000E+00	  0.0000000E+00	  0.0000000E+00	  0.0000000E+00	 -3.0841730E+00	  3.7664328E+00	 -3.3395469E-01	 -6.1384194E+03	  3.5255932E+01	 -8.0248364E+02	  2.7876034E+01	  5.1331299E+01	  1.5649753E+02	  0.0000000E+00	  0.0000000E+00
    4.6000	  5.0306039E+00	  0.0000000E+00	  0.0000000E+00	  7.5244093E-01	  5.3101841E-02	  5.0609560E+00	  9.8537631E-02	 -1.1632279E-02	  0.0000000E+00	  0.0000000E+00	 -1.2746849E-02	 -2.3961070E-04	  0.0000000E+00	  0.0000000E+00	  0.0000000E+00	  0.0000000E+00	  0.0000000E+00	  0.0000000E+00	  0.0000000E+00	  3.4347472E+00	 -1.3902632E+01	  3.6943775E-02	 -6.1098716E+03	  1.9348787E+01	 -1.5280957E+03	  1.3320288E+02	  4.3873554E+01	  2.4807115E+02	  0.0000000E+00	  0.0000000E+00
    4.7000	  5.0067511E+00	  0.0000000E+00	  0.0000000E+00	  7.8465211E-01	  5.4339983E-02	  5.2024984E+00	  1.2371437E-01	 -1.2024320E-02	  0.0000000E+00	  0.0000000E+00	 -1.3885008E-02	 -2.4329800E-04	  0.0000000E+00	  0.0000000E+00	  0.0000000E+00	  0.0000000E+00	  0.0000000E+00	  0.0000000E+00	  0.0000000E+00	  1.1476774E+01	 -3.1107459E+00	  4.1775766E-01	 -6.1184624E+03	  7.1132264E+00	 -1.3262596E+03	  1.3666904E+02	  4.0868916E+01	  3.8079880E+02	  0.0000000E+00	  0.0000000E+00
    4.8000	  4.9828982E+00	  0.0000000E+00	  0.0000000E+00	  8.1771022E-01	  5.5956203E-02	  5.4445071E+00	  1.5626517E-01	 -1.4726620E-02	  0.0000000E+00	  0.0000000E+00	 -1.4226354E-02	 -2.6990016E-04	  0.0000000E+00	  0.0000000E+00	  0.0000000E+00	  0.0000000E+00	  0.0000000E+00	  0.0000000E+00	  0.0000000E+00	  1.3383865E+01	 -2.3035707E+00	  1.6755989E-01	 -6.1582783E+03	  1.7984180E+01	 -1.2722191E+03	  6.6087311E+01	  4.2814262E+01	  4.2341504E+02	  0.0000000E+00	  0.0000000E+00
    4.9000	  4.9590459E+00	  0.0000000E+00	  0.0000000E+00	  8.5186112E-01	  5.7840053E-02	  5.6581883E+00	  1.8971154E-01	 -1.8948376E-02	  0.0000000E+00	  0.0000000E+00	 -1.3904174E-02	 -3.0226843E-04	  0.0000000E+00	  0.0000000E+00	  0.0000000E+00	  0.0000000E+00	  0.0000000E+00	  0.0000000E+00	  0.0000000E+00	  9.4187040E+00	  4.4480829E+00	 -5.2213049E-01	 -6.2122334E+03	  4.4141502E+01	 -9.4716864E+02	 -5.2055351E+01	  4.9874535E+01	  3.8239655E+02	  0.0000000E+00	  0.0000000E+00
    5.0000	  4.9351931E+00	  0.0000000E+00	  0.0000000E+00	  8.8713223E-01	  5.9712287E-02	  5.8012028E+00	  2.0325167E-01	 -2.1872574E-02	  0.0000000E+00	  0.0000000E+00	 -1.3322211E-02	 -3.1381560E-04	  0.0000000E+00	  0.0000000E+00	  0.0000000E+00	  0.0000000E+00	  0.0000000E+00	  0.0000000E+00	  0.0000000E+00	  6.7651424E+00	  3.0977970E+01	 -9.5056009E-01	 -6.2578975E+03	  6.0412216E+01	 -3.8159527E+01	 -1.7146030E+02	  6.1503067E+01	  3.5277582E+02	  0.0000000E+00	  0.0000000E+00
    5.1000	  4.9699082E+00	  0.0000000E+00	  0.0000000E+00	  9.2349619E-01	  6.1508942E-02	  5.9341483E+00	  1.8341611E-01	 -2.2570308E-02	  0.0000000E+00	  0.0000000E+00	 -1.2823835E-02	 -2.8537316E-04	  0.0000000E+00	  0.0000000E+00	  0.0000000E+00	  0.0000000E+00	  0.0000000E+00	  0.0000000E+00	  0.0000000E+00	  8.2938566E+00	  3.1416986E+01	 -1.0234716E+00	 -6.2743008E+03	  5.9917217E+01	  6.2063988E+01	 -2.0882661E+02	  7.3749496E+01	  3.5711954E+02	  0.0000000E+00	  0.0000000E+00
    5.2000	  5.0046239E+00	  0.0000000E+00	  0.0000000E+00	  9.6095294E-01	  6.3428625E-02	  6.1194687E+00	  1.4126934E-01	 -2.0664385E-02	  0.0000000E+00	  0.0000000E+00	 -1.2417566E-02	 -2.1334270E-04	  0.0000000E+00	  0.0000000E+00	  0.0000000E+00	  0.0000000E+00	  0.0000000E+00	  0.0000000E+00	  0.0000000E+00	  1.1775914E+01	  1.9002874E+01	 -5.6550854E-01	 -6.2548740E+03	  3.6444386E+01	 -2.8083072E+02	 -9.2841980E+01	  8.0768158E+01	  3.6403152E+02	  0.0000000E+00	  0.0000000E+00
    5.3000	  5.0393391E+00	  0.0000000E+00	  0.0000000E+00	  9.9961179E-01	  6.5370783E-02	  6.3521757E+00	  9.9087641E-02	 -1.6665207E-02	  0.0000000E+00	  0.0000000E+00	 -1.1911289E-02	 -1.1726419E-04	  0.0000000E+00	  0.0000000E+00	  0.0000000E+00	  0.0000000E+00	  0.0000000E+00	  0.0000000E+00	  0.0000000E+00	  1.2735362E+01	  2.2077869E+01	  5.0507432E-01	 -6.2087759E+03	 -8.8683529E+00	 -2.1266443E+02	  1.5601952E+02	  7.8108658E+01	  3.2184216E+02	  0.0000000E+00	  0.0000000E+00
    5.4000	  5.0740542E+00	  0.0000000E+00	  0.0000000E+00	  1.0393635E+00	  6.7061886E-02	  6.5595255E+00	  6.6854104E-02	 -1.2375325E-02	  0.0000000E+00	  0.0000000E+00	 -1.1181852E-02	 -3.4727880E-05	  0.0000000E+00	  0.0000000E+00	  0.0000000E+00	  0.0000000E+00	  0.0000000E+00	  0.0000000E+00	  0.0000000E+00	  9.0975065E+00	  1.0877224E+01	  1.2543583E+00	 -6.1549194E+03	 -4.2611523E+01	 -5.3823273E+02	  4.0834402E+02	  6.5994232E+01	  2.1142862E+02	  0.0000000E+00	  0.0000000E+00
    5.5000	  5.1087694E+00	  0.0000000E+00	  0.0000000E+00	  1.0800167E+00	  6.8417177E-02	  6.6790876E+00	  4.1116621E-02	 -8.1016663E-03	  0.0000000E+00	  0.0000000E+00	 -1.0194272E-02	  3.2021317E-06	  0.0000000E+00	  0.0000000E+00	  0.0000000E+00	  0.0000000E+00	  0.0000000E+00	  0.0000000E+00	  0.0000000E+00	  4.1456823E+00	 -1.4841223E+00	  1.3536475E+00	 -6.1179541E+03	 -5.0025036E+01	 -8.4613098E+02	  5.1030350E+02	  5.0792747E+01	  1.2356342E+02	  0.0000000E+00	  0.0000000E+00
    5.6000	  5.1434851E+00	  0.0000000E+00	  0.0000000E+00	  1.1213804E+00	  6.9370732E-02	  6.7331305E+00	  1.9851936E-02	 -4.2256722E-03	  0.0000000E+00	  0.0000000E+00	 -8.9280810E-03	 -1.2593140E-05	  0.0000000E+00	  0.0000000E+00	  0.0000000E+00	  0.0000000E+00	  0.0000000E+00	  0.0000000E+00	  0.0000000E+00	  2.3312342E+00	  1.0619356E+01	  1.0626644E+00	 -6.1152515E+03	 -3.7327141E+01	 -3.8231421E+02	  3.9599628E+02	  4.1411301E+01	  1.3354265E+02	  0.0000000E+00	  0.0000000E+00
    5.7000	  5.1782002E+00	  0.0000000E+00	  0.0000000E+00	  1.1631812E+00	  6.9886245E-02	  6.7773185E+00	  1.1395862E-02	 -3.4894813E-03	  0.0000000E+00	  0.0000000E+00	 -7.3978179E-03	 -6.8466637E-05	  0.0000000E+00	  0.0000000E+00	  0.0000000E+00	  0.0000000E+00	  0.0000000E+00	  0.0000000E+00	  0.0000000E+00	  2.5036461E+00	  1.5011010E+01	  2.5732538E-01	 -6.1460396E+03	 -3.3184426E+00	 -7.2858261E+01	  1.2366733E+02	  4.3398392E+01	  1.8523476E+02	  0.0000000E+00	  0.0000000E+00
    5.8000	  5.2129154E+00	  0.0000000E+00	  0.0000000E+00	  1.2052279E+00	  7.0330754E-02	  6.8231006E+00	  2.7548235E-02	 -7.1784770E-03	  0.0000000E+00	  0.0000000E+00	 -5.7396968E-03	 -1.3059859E-04	  0.0000000E+00	  0.0000000E+00	  0.0000000E+00	  0.0000000E+00	  0.0000000E+00	  0.0000000E+00	  0.0000000E+00	  2.4304476E+00	  1.6831276E+01	 -7.4323279E-01	 -6.1959551E+03	  3.7588364E+01	  2.0134518E+02	 -1.8599258E+02	  5.7350655E+01	  2.1627866E+02	  0.0000000E+00	  0.0000000E+00