
Predictions were generated on 04-Dec-2024 at 11:47:44 using OpenFAST, compiled as a 64-bit application using single precision at commit v3.2.1
 linked with  NWTC Subroutine Library; ElastoDyn; InflowWind; AeroDyn; ServoDyn

Description from the FAST input file: OpenFast Main File Tutorial 1

Time	Wind1VelX	Wind1VelY	Wind1VelZ	Azimuth	RotSpeed	GenSpeed	OoPDefl1	IPDefl1	TwstDefl1	BldPitch1	TTDspFA	TTDspSS	TTDspTwst	PtfmSurge	PtfmSway	PtfmHeave	PtfmRoll	PtfmPitch	PtfmYaw	RotTorq	TwrBsFxt	TwrBsFyt	TwrBsFzt	TwrBsMxt	TwrBsMyt	TwrBsMzt	RootMxb1	RootMyb1	GenPwr	GenTq
(s)	(m/s)	(m/s)	(m/s)	(deg)	(rpm)	(rpm)	(m)	(m)	(deg)	(deg)	(m)	(m)	(deg)	(m)	(m)	(m)	(deg)	(deg)	(deg)	(kN-m)	(kN)	(kN)	(kN)	(kN-m)	(kN-m)	(kN-m)	(kN-m)	(kN-m)	(kW)	(kN-m)
    0.0000	  5.2180533E+00	  0.0000000E+00	  0.0000000E+00	  0.0000000E+00	  0.0000000E+00	  0.0000000E+00	  0.0000000E+00	  0.0000000E+00	  0.0000000E+00	  0.0000000E+00	  0.0000000E+00	  0.0000000E+00	  0.0000000E+00	  0.0000000E+00	  0.0000000E+00	  0.0000000E+00	  0.0000000E+00	  0.0000000E+00	  0.0000000E+00	  1.1896771E-04	 -1.7842075E+01	  5.6396395E-02	 -6.0896377E+03	 -1.3643084E+00	 -4.0932224E+02	  1.9810706E-05	  4.4895139E+00	  6.1744541E+01	  0.0000000E+00	  0.0000000E+00
    0.1000	  5.1362252E+00	  0.0000000E+00	  0.0000000E+00	  4.3713208E-04	  1.0149423E-03	  4.7038898E-02	  9.1147013E-03	  9.8697434E-04	  0.0000000E+00	  0.0000000E+00	 -1.6040314E-04	  6.8115656E-07	  0.0000000E+00	  0.0000000E+00	  0.0000000E+00	  0.0000000E+00	  0.0000000E+00	  0.0000000E+00	  0.0000000E+00	  5.7663736E+00	  2.4498531E+01	 -2.9518574E-01	 -6.1148184E+03	  8.9435959E+00	  8.1334113E+02	 -1.0505932E+02	 -1.1859640E+00	  1.5799062E+02	  0.0000000E+00	  0.0000000E+00
    0.2000	  5.0543976E+00	  0.0000000E+00	  0.0000000E+00	  3.5516982E-04	 -8.5053197E-04	  8.6423881E-02	  3.7778724E-02	 -8.1254746E-04	  0.0000000E+00	  0.0000000E+00	 -6.1398261E-04	  4.1820326E-06	  0.0000000E+00	  0.0000000E+00	  0.0000000E+00	  0.0000000E+00	  0.0000000E+00	  0.0000000E+00	  0.0000000E+00	 -5.0315313E+00	  3.9602985E+01	  5.6254864E-01	 -6.1718037E+03	 -1.2539621E+01	  1.3140485E+03	 -1.3210896E+02	  1.2463325E+00	  2.5573361E+02	  0.0000000E+00	  0.0000000E+00
    0.3000	  4.9725695E+00	  0.0000000E+00	  0.0000000E+00	  4.6445284E-04	  7.5687916E-04	 -3.3762705E-02	  8.7442406E-02	 -6.1975117E-03	  0.0000000E+00	  0.0000000E+00	 -1.3099520E-03	  1.2096447E-05	  0.0000000E+00	  0.0000000E+00	  0.0000000E+00	  0.0000000E+00	  0.0000000E+00	  0.0000000E+00	  0.0000000E+00	 -3.4791875E+00	  1.8513346E+01	 -1.5831767E+00	 -6.2340049E+03	  4.9163696E+01	  7.5265747E+02	 -2.3796515E+02	  8.0448790E+00	  2.8385992E+02	  0.0000000E+00	  0.0000000E+00
    0.4000	  4.8907413E+00	  0.0000000E+00	  0.0000000E+00	  4.9177359E-04	 -7.9325451E-05	 -4.9099188E-02	  1.4600885E-01	 -1.1504215E-02	  0.0000000E+00	  0.0000000E+00	 -2.3985759E-03	  3.6055168E-05	  0.0000000E+00	  0.0000000E+00	  0.0000000E+00	  0.0000000E+00	  0.0000000E+00	  0.0000000E+00	  0.0000000E+00	  8.1754476E-01	  5.4970169E+01	 -4.9448270E-01	 -6.2783271E+03	  1.7799877E+01	  1.7579038E+03	 -3.9065698E+02	  9.8420029E+00	  3.1817487E+02	  0.0000000E+00	  0.0000000E+00
    0.5000	  4.8089132E+00	  0.0000000E+00	  0.0000000E+00	  1.1474717E-03	  2.3192845E-03	  6.2319856E-02	  1.8765712E-01	 -1.5377858E-02	  0.0000000E+00	  0.0000000E+00	 -4.2154412E-03	  7.1542301E-05	  0.0000000E+00	  0.0000000E+00	  0.0000000E+00	  0.0000000E+00	  0.0000000E+00	  0.0000000E+00	  0.0000000E+00	  1.3025562E+01	  5.6550179E+01	 -1.5974024E-01	 -6.2838843E+03	 -4.0130830E-01	  1.6317007E+03	 -2.6874652E+02	  1.6378281E+01	  3.5894699E+02	  0.0000000E+00	  0.0000000E+00
    0.6000	  4.7270856E+00	  0.0000000E+00	  0.0000000E+00	  3.2511698E-03	  4.7645806E-03	  4.1419691E-01	  2.0103610E-01	 -1.6062099E-02	  0.0000000E+00	  0.0000000E+00	 -6.7130676E-03	  1.0456001E-04	  0.0000000E+00	  0.0000000E+00	  0.0000000E+00	  0.0000000E+00	  0.0000000E+00	  0.0000000E+00	  0.0000000E+00	  2.3206844E+01	  1.2242986E+01	 -5.2081514E-02	 -6.2493506E+03	 -1.4834589E+01	  7.2407555E+01	  2.4189281E+01	  9.4044209E+00	  4.1456284E+02	  0.0000000E+00	  0.0000000E+00
    0.7000	  4.6452575E+00	  0.0000000E+00	  0.0000000E+00	  7.0760758E-03	  8.2497522E-03	  8.3564419E-01	  1.9698389E-01	 -1.2208873E-02	  0.0000000E+00	  0.0000000E+00	 -9.2822900E-03	  1.2461364E-04	  0.0000000E+00	  0.0000000E+00	  0.0000000E+00	  0.0000000E+00	  0.0000000E+00	  0.0000000E+00	  0.0000000E+00	  2.1447844E+01	  2.4777468E+01	  2.6448784E+00	 -6.1929844E+03	 -1.0107819E+02	  1.0989908E+02	  4.4412863E+02	 -3.7357543E+00	  4.7947296E+02	  0.0000000E+00	  0.0000000E+00
    0.8000	  4.5634294E+00	  0.0000000E+00	  0.0000000E+00	  1.3004679E-02	  1.0862934E-02	  1.1892178E+00	  1.8389766E-01	 -8.4662531E-03	  0.0000000E+00	  0.0000000E+00	 -1.1270252E-02	  1.0826950E-04	  0.0000000E+00	  0.0000000E+00	  0.0000000E+00	  0.0000000E+00	  0.0000000E+00	  0.0000000E+00	  0.0000000E+00	  1.4945500E+01	  1.9927370E+01	  1.9186933E+00	 -6.1353540E+03	 -8.3468513E+01	 -3.0132416E+02	  7.5641205E+02	 -1.4372617E+01	  4.2613235E+02	  0.0000000E+00	  0.0000000E+00
    0.9000	  4.4816017E+00	  0.0000000E+00	  0.0000000E+00	  1.9916831E-02	  1.2685857E-02	  1.3190509E+00	  1.5784997E-01	 -7.2178813E-03	  0.0000000E+00	  0.0000000E+00	 -1.2368309E-02	  4.9023940E-05	  0.0000000E+00	  0.0000000E+00	  0.0000000E+00	  0.0000000E+00	  0.0000000E+00	  0.0000000E+00	  0.0000000E+00	  5.4137146E-01	 -2.1879337E+01	  1.6704296E+00	 -6.1013711E+03	 -6.6910690E+01	 -1.6684728E+03	  7.4528400E+02	 -2.2440941E+01	  2.8385498E+02	  0.0000000E+00	  0.0000000E+00
    1.0000	  4.3997736E+00	  0.0000000E+00	  0.0000000E+00	  2.8249661E-02	  1.4682532E-02	  1.3381824E+00	  1.1368682E-01	 -4.4845184E-03	  0.0000000E+00	  0.0000000E+00	 -1.2669265E-02	 -3.9573177E-05	  0.0000000E+00	  0.0000000E+00	  0.0000000E+00	  0.0000000E+00	  0.0000000E+00	  0.0000000E+00	  0.0000000E+00	  4.0250483E+00	 -1.6681725E+00	  9.7748470E-01	 -6.1107808E+03	 -3.4575676E+01	 -1.1264149E+03	  5.1494781E+02	 -1.5346250E+01	  2.2721283E+02	  0.0000000E+00	  0.0000000E+00
    1.1000	  4.4574594E+00	  0.0000000E+00	  0.0000000E+00	  3.7320152E-02	  1.5546057E-02	  1.4747344E+00	  5.7848293E-02	 -2.0918362E-03	  0.0000000E+00	  0.0000000E+00	 -1.2510966E-02	 -1.4942241E-04	  0.0000000E+00	  0.0000000E+00	  0.0000000E+00	  0.0000000E+00	  0.0000000E+00	  0.0000000E+00	  0.0000000E+00	  9.8107967E+00	  1.6750017E+01	  4.0847087E-01	 -6.1570894E+03	 -1.5771127E+00	 -5.2604150E+02	  1.5345967E+02	 -3.3451724E+00	  2.3243166E+02	  0.0000000E+00	  0.0000000E+00
    1.2000	  4.5151453E+00	  0.0000000E+00	  0.0000000E+00	  4.7073662E-02	  1.7005997E-02	  1.6653810E+00	  1.3273830E-02	 -1.5521555E-03	  0.0000000E+00	  0.0000000E+00	 -1.2163452E-02	 -2.6651297E-04	  0.0000000E+00	  0.0000000E+00	  0.0000000E+00	  0.0000000E+00	  0.0000000E+00	  0.0000000E+00	  0.0000000E+00	  1.0169333E+01	 -1.2050713E-01	 -6.0402757E-01	 -6.2169062E+03	  4.6257446E+01	 -8.8371906E+02	 -2.2279008E+02	  8.4891615E+00	  1.9891881E+02	  0.0000000E+00	  0.0000000E+00
    1.3000	  4.5728316E+00	  0.0000000E+00	  0.0000000E+00	  5.7400908E-02	  1.7038677E-02	  1.8008790E+00	 -1.9165274E-03	 -1.4722586E-03	  0.0000000E+00	  0.0000000E+00	 -1.1880063E-02	 -3.6520101E-04	  0.0000000E+00	  0.0000000E+00	  0.0000000E+00	  0.0000000E+00	  0.0000000E+00	  0.0000000E+00	  0.0000000E+00	  2.2479579E+00	  3.0698729E+01	 -1.6733152E+00	 -6.2657129E+03	  9.4282562E+01	  1.0289955E+02	 -5.2946088E+02	  1.8565702E+01	  1.3570349E+02	  0.0000000E+00	  0.0000000E+00
    1.4000	  4.6305175E+00	  0.0000000E+00	  0.0000000E+00	  6.7400306E-02	  1.6337566E-02	  1.7006680E+00	  3.1148230E-03	 -2.8778629E-03	  0.0000000E+00	  0.0000000E+00	 -1.2132127E-02	 -4.2469022E-04	  0.0000000E+00	  0.0000000E+00	  0.0000000E+00	  0.0000000E+00	  0.0000000E+00	  0.0000000E+00	  0.0000000E+00	 -1.2250046E+01	  4.6248993E+01	 -2.5499392E+00	 -6.2801826E+03	  1.3221750E+02	  5.3507501E+02	 -7.3344904E+02	  2.2321501E+01	  5.9640469E+01	  0.0000000E+00	  0.0000000E+00
    1.5000	  4.6882033E+00	  0.0000000E+00	  0.0000000E+00	  7.6853283E-02	  1.5107987E-02	  1.4289148E+00	  1.0460106E-02	 -4.4470900E-03	  0.0000000E+00	  0.0000000E+00	 -1.3298569E-02	 -4.2873327E-04	  0.0000000E+00	  0.0000000E+00	  0.0000000E+00	  0.0000000E+00	  0.0000000E+00	  0.0000000E+00	  0.0000000E+00	 -1.4823213E+01	  6.9237108E+00	 -3.3518085E+00	 -6.2537637E+03	  1.5540921E+02	 -7.6931946E+02	 -7.1316748E+02	  2.3681282E+01	  4.9692978E+01	  0.0000000E+00	  0.0000000E+00
    1.6000	  4.7458892E+00	  0.0000000E+00	  0.0000000E+00	  8.5650571E-02	  1.4372973E-02	  1.2357488E+00	  2.1410402E-02	 -3.8216051E-03	  0.0000000E+00	  0.0000000E+00	 -1.5215942E-02	 -3.7428390E-04	  0.0000000E+00	  0.0000000E+00	  0.0000000E+00	  0.0000000E+00	  0.0000000E+00	  0.0000000E+00	  0.0000000E+00	 -4.2413869E+00	  4.3222237E+00	 -1.5875192E+00	 -6.2020786E+03	  9.1896591E+01	 -1.1273683E+03	 -4.3456140E+02	  2.1252506E+01	  1.7715781E+02	  0.0000000E+00	  0.0000000E+00
    1.7000	  4.8035750E+00	  0.0000000E+00	  0.0000000E+00	  9.4338566E-02	  1.4719523E-02	  1.2995791E+00	  5.0586674E-02	 -3.7507205E-03	  0.0000000E+00	  0.0000000E+00	 -1.7248794E-02	 -2.8827784E-04	  0.0000000E+00	  0.0000000E+00	  0.0000000E+00	  0.0000000E+00	  0.0000000E+00	  0.0000000E+00	  0.0000000E+00	  1.0445212E+01	  4.1649885E+00	  2.3175668E-02	 -6.1456064E+03	  2.5886370E+01	 -1.4105917E+03	 -1.5171782E+01	  1.3706170E+01	  2.9872211E+02	  0.0000000E+00	  0.0000000E+00
    1.8000	  4.8612614E+00	  0.0000000E+00	  0.0000000E+00	  1.0346370E-01	  1.5958238E-02	  1.5545986E+00	  1.0304578E-01	 -6.5904274E-03	  0.0000000E+00	  0.0000000E+00	 -1.8662967E-02	 -2.0465351E-04	  0.0000000E+00	  0.0000000E+00	  0.0000000E+00	  0.0000000E+00	  0.0000000E+00	  0.0000000E+00	  0.0000000E+00	  1.5050723E+01	 -2.9637632E+01	  9.9695706E-01	 -6.1070928E+03	 -1.8188219E+01	 -2.5547510E+03	  3.4537845E+02	  3.9515085E+00	  2.9940399E+02	  0.0000000E+00	  0.0000000E+00
    1.9000	  4.9189472E+00	  0.0000000E+00	  0.0000000E+00	  1.1368166E-01	  1.8107871E-02	  1.8047835E+00	  1.6083017E-01	 -9.6103754E-03	  0.0000000E+00	  0.0000000E+00	 -1.9047068E-02	 -1.4128471E-04	  0.0000000E+00	  0.0000000E+00	  0.0000000E+00	  0.0000000E+00	  0.0000000E+00	  0.0000000E+00	  0.0000000E+00	  1.1563974E+01	 -1.6509165E+01	  1.3480445E+00	 -6.1071455E+03	 -3.6062855E+01	 -2.1991287E+03	  4.6599017E+02	 -3.4354038E+00	  2.8712491E+02	  0.0000000E+00	  0.0000000E+00
    2.0000	  4.9766331E+00	  0.0000000E+00	  0.0000000E+00	  1.2510175E-01	  1.9918801E-02	  1.9728333E+00	  1.9442473E-01	 -1.1750915E-02	  0.0000000E+00	  0.0000000E+00	 -1.8483389E-02	 -1.0237076E-04	  0.0000000E+00	  0.0000000E+00	  0.0000000E+00	  0.0000000E+00	  0.0000000E+00	  0.0000000E+00	  0.0000000E+00	  6.8332109E+00	  7.3166642E+00	  5.9418148E-01	 -6.1454619E+03	 -1.5384034E+01	 -1.3964695E+03	  3.5868262E+02	 -3.9836528E+00	  3.3813779E+02	  0.0000000E+00	  0.0000000E+00
    2.1000	  4.9938183E+00	  0.0000000E+00	  0.0000000E+00	  1.3769661E-01	  2.2130374E-02	  2.0931728E+00	  1.9511919E-01	 -1.3235628E-02	  0.0000000E+00	  0.0000000E+00	 -1.7195905E-02	 -7.8948353E-05	  0.0000000E+00	  0.0000000E+00	  0.0000000E+00	  0.0000000E+00	  0.0000000E+00	  0.0000000E+00	  0.0000000E+00	  7.8185263E+00	 -5.9173613E+00	  9.4652824E-02	 -6.2036021E+03	  4.1667689E-02	 -1.5564337E+03	  1.6887885E+02	  2.7806795E+00	  4.2140741E+02	  0.0000000E+00	  0.0000000E+00
    2.2000	  5.0110040E+00	  0.0000000E+00	  0.0000000E+00	  1.5168484E-01	  2.4522124E-02	  2.3029103E+00	  1.8158476E-01	 -1.3319824E-02	  0.0000000E+00	  0.0000000E+00	 -1.5284410E-02	 -5.7768080E-05	  0.0000000E+00	  0.0000000E+00	  0.0000000E+00	  0.0000000E+00	  0.0000000E+00	  0.0000000E+00	  0.0000000E+00	  1.5144802E+01	  1.6646536E+01	  2.1066143E-01	 -6.2581899E+03	 -4.1256065E+00	 -6.2549359E+02	  2.2882469E+01	  1.2313142E+01	  4.7927545E+02	  0.0000000E+00	  0.0000000E+00
    2.3000	  5.0281892E+00	  0.0000000E+00	  0.0000000E+00	  1.6712105E-01	  2.7006000E-02	  2.6226981E+00	  1.6753529E-01	 -1.3402722E-02	  0.0000000E+00	  0.0000000E+00	 -1.2944127E-02	 -3.6861409E-05	  0.0000000E+00	  0.0000000E+00	  0.0000000E+00	  0.0000000E+00	  0.0000000E+00	  0.0000000E+00	  0.0000000E+00	  1.8231089E+01	  4.6175766E+01	  3.9218900E-01	 -6.2837842E+03	 -1.0932121E+01	  5.1117233E+02	 -3.4229702E+01	  1.9127317E+01	  4.1128250E+02	  0.0000000E+00	  0.0000000E+00
    2.4000	  5.0453749E+00	  0.0000000E+00	  0.0000000E+00	  1.8411458E-01	  2.9560039E-02	  2.9319723E+00	  1.4413232E-01	 -1.3099164E-02	  0.0000000E+00	  0.0000000E+00	 -1.0559403E-02	 -1.7939519E-05	  0.0000000E+00	  0.0000000E+00	  0.0000000E+00	  0.0000000E+00	  0.0000000E+00	  0.0000000E+00	  0.0000000E+00	  1.4396166E+01	  2.7250763E+01	  1.2503646E-01	 -6.2675615E+03	 -4.4693255E+00	  1.8918700E+02	 -2.8622726E+01	  2.0439058E+01	  2.4731625E+02	  0.0000000E+00	  0.0000000E+00
    2.5000	  5.0625601E+00	  0.0000000E+00	  0.0000000E+00	  2.0244679E-01	  3.1426772E-02	  3.1300001E+00	  9.8895393E-02	 -9.1052037E-03	  0.0000000E+00	  0.0000000E+00	 -8.4552774E-03	  2.9430296E-06	  0.0000000E+00	  0.0000000E+00	  0.0000000E+00	  0.0000000E+00	  0.0000000E+00	  0.0000000E+00	  0.0000000E+00	  6.9004388E+00	  2.4977940E+01	  9.9741943E-02	 -6.2200474E+03	 -5.3207045E+00	  2.4612674E+02	  2.9046606E+01	  1.6677431E+01	  1.7256854E+02	  0.0000000E+00	  0.0000000E+00
    2.6000	  5.0797453E+00	  0.0000000E+00	  0.0000000E+00	  2.2168061E-01	  3.2505151E-02	  3.1976788E+00	  3.9456423E-02	 -2.5581943E-03	  0.0000000E+00	  0.0000000E+00	 -6.6744359E-03	  2.2904173E-05	  0.0000000E+00	  0.0000000E+00	  0.0000000E+00	  0.0000000E+00	  0.0000000E+00	  0.0000000E+00	  0.0000000E+00	  1.0705730E+00	  2.8922747E+01	  2.8619307E-01	 -6.1615894E+03	 -1.3514738E+01	  4.2199808E+02	  1.3966818E+02	  1.0406952E+01	  2.0855975E+02	  0.0000000E+00	  0.0000000E+00
    2.7000	  5.0969310E+00	  0.0000000E+00	  0.0000000E+00	  2.4129692E-01	  3.2814745E-02	  3.1920459E+00	 -4.1777301E-03	  1.8979893E-03	  0.0000000E+00	  0.0000000E+00	 -4.9337759E-03	  3.1922795E-05	  0.0000000E+00	  0.0000000E+00	  0.0000000E+00	  0.0000000E+00	  0.0000000E+00	  0.0000000E+00	  0.0000000E+00	 -1.1279757E+00	 -9.2766070E-01	  5.6985217E-01	 -6.1154502E+03	 -2.4032696E+01	 -3.4806033E+02	  2.4729788E+02	  4.4881816E+00	  2.2238066E+02	  0.0000000E+00	  0.0000000E+00
    2.8000	  5.1141162E+00	  0.0000000E+00	  0.0000000E+00	  2.6102251E-01	  3.2908875E-02	  3.1739817E+00	 -6.6882423E-03	  2.4877149E-03	  0.0000000E+00	  0.0000000E+00	 -2.9305916E-03	  2.4075936E-05	  0.0000000E+00	  0.0000000E+00	  0.0000000E+00	  0.0000000E+00	  0.0000000E+00	  0.0000000E+00	  0.0000000E+00	 -4.1439474E-01	  3.7291012E+00	  7.9059893E-01	 -6.1035825E+03	 -2.9476536E+01	 -3.7932331E+01	  2.4125644E+02	  2.5966065E+00	  1.7874541E+02	  0.0000000E+00	  0.0000000E+00
    2.9000	  5.1313019E+00	  0.0000000E+00	  0.0000000E+00	  2.8080273E-01	  3.3006322E-02	  3.1846864E+00	  2.3981238E-02	 -7.0084864E-04	  0.0000000E+00	  0.0000000E+00	 -7.9527008E-04	 -9.3433403E-07	  0.0000000E+00	  0.0000000E+00	  0.0000000E+00	  0.0000000E+00	  0.0000000E+00	  0.0000000E+00	  0.0000000E+00	  1.4981744E+00	  3.2604637E+01	  3.3907133E-01	 -6.1305825E+03	 -1.0657954E+01	  1.0428566E+03	  4.4320686E+01	  7.5201545E+00	  1.2270642E+02	  0.0000000E+00	  0.0000000E+00
    3.0000	  5.1484871E+00	  0.0000000E+00	  0.0000000E+00	  3.0066490E-01	  3.3298701E-02	  3.2223408E+00	  6.0293399E-02	 -6.0589435E-03	  0.0000000E+00	  0.0000000E+00	  9.8870706E-04	 -3.1270978E-05	  0.0000000E+00	  0.0000000E+00	  0.0000000E+00	  0.0000000E+00	  0.0000000E+00	  0.0000000E+00	  0.0000000E+00	  2.4505336E+00	  2.7157234E+01	 -6.0978186E-01	 -6.1826333E+03	  2.5595089E+01	  1.1345016E+03	 -2.8303546E+02	  1.8859560E+01	  1.3493207E+02	  0.0000000E+00	  0.0000000E+00
    3.1000	  5.1457682E+00	  0.0000000E+00	  0.0000000E+00	  3.2080030E-01	  3.3777963E-02	  3.2733953E+00	  9.1074415E-02	 -1.0351496E-02	  0.0000000E+00	  0.0000000E+00	  2.0536487E-03	 -4.2652355E-05	  0.0000000E+00	  0.0000000E+00	  0.0000000E+00	  0.0000000E+00	  0.0000000E+00	  0.0000000E+00	  0.0000000E+00	  3.0116284E+00	  3.6824196E+01	 -1.4331280E+00	 -6.2387817E+03	  5.5366337E+01	  1.5868567E+03	 -5.5934796E+02	  3.2987949E+01	  2.7759387E+02	  0.0000000E+00	  0.0000000E+00
    3.2000	  5.1430488E+00	  0.0000000E+00	  0.0000000E+00	  3.4120890E-01	  3.4290127E-02	  3.3283126E+00	  1.2633112E-01	 -1.3828807E-02	  0.0000000E+00	  0.0000000E+00	  2.3172570E-03	 -1.9588228E-05	  0.0000000E+00	  0.0000000E+00	  0.0000000E+00	  0.0000000E+00	  0.0000000E+00	  0.0000000E+00	  0.0000000E+00	  2.8807423E+00	  5.9169964E+01	 -1.4509619E+00	 -6.2741494E+03	  5.4685230E+01	  2.3012048E+03	 -6.2080334E+02	  4.3973133E+01	  4.3341360E+02	  0.0000000E+00	  0.0000000E+00
    3.3000	  5.1403298E+00	  0.0000000E+00	  0.0000000E+00	  3.6200002E-01	  3.5096258E-02	  3.3847296E+00	  1.7315155E-01	 -1.8268643E-02	  0.0000000E+00	  0.0000000E+00	  1.8736807E-03	  3.4838387E-05	  0.0000000E+00	  0.0000000E+00	  0.0000000E+00	  0.0000000E+00	  0.0000000E+00	  0.0000000E+00	  0.0000000E+00	  3.6189091E+00	  4.3516243E+01	 -9.1059572E-01	 -6.2712607E+03	  3.0069990E+01	  1.8161036E+03	 -4.3897647E+02	  4.7749836E+01	  4.5420685E+02	  0.0000000E+00	  0.0000000E+00
    3.4000	  5.1376104E+00	  0.0000000E+00	  0.0000000E+00	  3.8344681E-01	  3.6509607E-02	  3.4817297E+00	  2.1745503E-01	 -2.1431085E-02	  0.0000000E+00	  0.0000000E+00	  8.6841272E-04	  1.0649116E-04	  0.0000000E+00	  0.0000000E+00	  0.0000000E+00	  0.0000000E+00	  0.0000000E+00	  0.0000000E+00	  0.0000000E+00	  7.5588002E+00	  3.6561646E+01	  3.9268460E-02	 -6.2337363E+03	 -1.1426007E+01	  1.4790699E+03	 -1.1434734E+02	  4.4090347E+01	  4.0346622E+02	  0.0000000E+00	  0.0000000E+00
    3.5000	  5.1348915E+00	  0.0000000E+00	  0.0000000E+00	  4.0598643E-01	  3.8794119E-02	  3.6836185E+00	  2.3231061E-01	 -2.0788049E-02	  0.0000000E+00	  0.0000000E+00	 -5.3973665E-04	  1.7090223E-04	  0.0000000E+00	  0.0000000E+00	  0.0000000E+00	  0.0000000E+00	  0.0000000E+00	  0.0000000E+00	  0.0000000E+00	  1.4621059E+01	  4.1778202E+01	  1.2303084E+00	 -6.1789492E+03	 -5.9966660E+01	  1.4180226E+03	  2.2393842E+02	  3.5208591E+01	  3.9691528E+02	  0.0000000E+00	  0.0000000E+00
    3.6000	  5.1321726E+00	  0.0000000E+00	  0.0000000E+00	  4.3011066E-01	  4.1615143E-02	  4.0094419E+00	  2.0858799E-01	 -1.6924029E-02	  0.0000000E+00	  0.0000000E+00	 -2.0188468E-03	  2.0075127E-04	  0.0000000E+00	  0.0000000E+00	  0.0000000E+00	  0.0000000E+00	  0.0000000E+00	  0.0000000E+00	  0.0000000E+00	  1.9816877E+01	  1.3494949E+01	  1.9888632E+00	 -6.1297183E+03	 -9.0865631E+01	  3.8784164E+02	  4.9230209E+02	  2.3627474E+01	  4.3699390E+02	  0.0000000E+00	  0.0000000E+00
    3.7000	  5.1294532E+00	  0.0000000E+00	  0.0000000E+00	  4.5595607E-01	  4.4536181E-02	  4.3697362E+00	  1.6790834E-01	 -1.1467007E-02	  0.0000000E+00	  0.0000000E+00	 -3.0465799E-03	  1.7987116E-04	  0.0000000E+00	  0.0000000E+00	  0.0000000E+00	  0.0000000E+00	  0.0000000E+00	  0.0000000E+00	  0.0000000E+00	  1.8078693E+01	  2.3895905E+00	  2.2133579E+00	 -6.1094434E+03	 -9.7471085E+01	 -6.2899826E+01	  6.3721436E+02	  1.2261648E+01	  4.6892566E+02	  0.0000000E+00	  0.0000000E+00
    3.8000	  5.1267343E+00	  0.0000000E+00	  0.0000000E+00	  4.8344076E-01	  4.6979252E-02	  4.6431422E+00	  1.3483989E-01	 -7.3326812E-03	  0.0000000E+00	  0.0000000E+00	 -3.3286714E-03	  1.0426877E-04	  0.0000000E+00	  0.0000000E+00	  0.0000000E+00	  0.0000000E+00	  0.0000000E+00	  0.0000000E+00	  0.0000000E+00	  1.1070932E+01	  2.3579332E+01	  1.8792975E+00	 -6.1269614E+03	 -7.7985123E+01	  5.5272498E+02	  6.0325574E+02	  5.6924138E+00	  4.0775150E+02	  0.0000000E+00	  0.0000000E+00
    3.9000	  5.1240149E+00	  0.0000000E+00	  0.0000000E+00	  5.1215488E-01	  4.8613429E-02	  4.7758179E+00	  1.0985600E-01	 -6.6847494E-03	  0.0000000E+00	  0.0000000E+00	 -3.1072905E-03	 -1.4326870E-05	  0.0000000E+00	  0.0000000E+00	  0.0000000E+00	  0.0000000E+00	  0.0000000E+00	  0.0000000E+00	  0.0000000E+00	  3.8068931E+00	  2.5183815E+01	  8.4338349E-01	 -6.1722251E+03	 -3.0177240E+01	  7.0360425E+02	  3.6526312E+02	  8.2954473E+00	  2.5118240E+02	  0.0000000E+00	  0.0000000E+00
    4.0000	  5.1212959E+00	  0.0000000E+00	  0.0000000E+00	  5.4171592E-01	  4.9856100E-02	  4.8197474E+00	  7.8762077E-02	 -7.2745648E-03	  0.0000000E+00	  0.0000000E+00	 -2.9592691E-03	 -1.4391005E-04	  0.0000000E+00	  0.0000000E+00	  0.0000000E+00	  0.0000000E+00	  0.0000000E+00	  0.0000000E+00	  0.0000000E+00	  2.2092826E+00	  3.3442554E+01	 -4.8716027E-01	 -6.2264639E+03	  2.8354040E+01	  1.0396560E+03	 -7.0757565E+00	  2.1305906E+01	  1.4878918E+02	  0.0000000E+00	  0.0000000E+00
    4.1000	  5.1008005E+00	  0.0000000E+00	  0.0000000E+00	  5.7193267E-01	  5.0810684E-02	  4.8902507E+00	  3.8171202E-02	 -7.0218416E-03	  0.0000000E+00	  0.0000000E+00	 -3.4113771E-03	 -2.4894971E-04	  0.0000000E+00	  0.0000000E+00	  0.0000000E+00	  0.0000000E+00	  0.0000000E+00	  0.0000000E+00	  0.0000000E+00	  5.6884942E+00	  5.4229301E+01	 -1.2454169E+00	 -6.2663306E+03	  6.6228210E+01	  1.6365502E+03	 -3.4583023E+02	  4.0167343E+01	  1.6831528E+02	  0.0000000E+00	  0.0000000E+00
    4.2000	  5.0803046E+00	  0.0000000E+00	  0.0000000E+00	  6.0261393E-01	  5.1475793E-02	  5.0121565E+00	  5.9275934E-03	 -7.1690306E-03	  0.0000000E+00	  0.0000000E+00	 -4.6686381E-03	 -3.0870142E-04	  0.0000000E+00	  0.0000000E+00	  0.0000000E+00	  0.0000000E+00	  0.0000000E+00	  0.0000000E+00	  0.0000000E+00	  6.5517035E+00	  3.9723213E+01	 -1.5375638E+00	 -6.2723101E+03	  8.2979004E+01	  1.0835461E+03	 -4.8884930E+02	  5.5819668E+01	  2.0579732E+02	  0.0000000E+00	  0.0000000E+00
    4.3000	  5.0598087E+00	  0.0000000E+00	  0.0000000E+00	  6.3362294E-01	  5.1823754E-02	  5.0949340E+00	  4.2009549E-03	 -8.0968710E-03	  0.0000000E+00	  0.0000000E+00	 -6.6154413E-03	 -3.1894690E-04	  0.0000000E+00	  0.0000000E+00	  0.0000000E+00	  0.0000000E+00	  0.0000000E+00	  0.0000000E+00	  0.0000000E+00	  1.7031897E+00	  2.3171093E+01	 -1.5174139E+00	 -6.2425776E+03	  8.2540726E+01	  3.5504041E+02	 -3.9896478E+02	  6.1746124E+01	  1.9240840E+02	  0.0000000E+00	  0.0000000E+00
    4.4000	  5.0393133E+00	  0.0000000E+00	  0.0000000E+00	  6.6474128E-01	  5.1850323E-02	  5.0703607E+00	  3.2345336E-02	 -9.2669278E-03	  0.0000000E+00	  0.0000000E+00	 -9.0600578E-03	 -2.9342127E-04	  0.0000000E+00	  0.0000000E+00	  0.0000000E+00	  0.0000000E+00	  0.0000000E+00	  0.0000000E+00	  0.0000000E+00	 -3.8423429E+00	  2.4873062E+01	 -8.8015431E-01	 -6.1907446E+03	  5.8613056E+01	  7.7529411E+01	 -1.7855328E+02	  5.8145096E+01	  1.5265102E+02	  0.0000000E+00	  0.0000000E+00
    4.5000	  5.0188179E+00	  0.0000000E+00	  0.0000000E+00	  6.9583231E-01	  5.1823623E-02	  4.9900002E+00	  6.8391927E-02	 -1.0682870E-02	  0.0000000E+00	  0.0000000E+00	 -1.1789084E-02	 -2.5788520E-04	  0.0000000E+00	  0.0000000E+00	  0.0000000E+00	  0.0000000E+00	  0.0000000E+00	  0.0000000E+00	  0.0000000E+00	 -3.6260860E+00	  2.3464251E+00	 -3.3444473E-01	 -6.1383291E+03	  3.5401714E+01	 -9.2042896E+02	  2.5899151E+01	  4.9870182E+01	  1.4918588E+02	  0.0000000E+00	  0.0000000E+00
    4.6000	  4.9983220E+00	  0.0000000E+00	  0.0000000E+00	  7.2703260E-01	  5.2317098E-02	  4.9794655E+00	  9.7859778E-02	 -1.1450542E-02	  0.0000000E+00	  0.0000000E+00	 -1.4400694E-02	 -2.3279745E-04	  0.0000000E+00	  0.0000000E+00	  0.0000000E+00	  0.0000000E+00	  0.0000000E+00	  0.0000000E+00	  0.0000000E+00	  3.3660939E+00	 -1.6871040E+01	  2.9294686E-02	 -6.1098481E+03	  1.8920313E+01	 -1.7810756E+03	  1.3129837E+02	  4.2644169E+01	  2.4524925E+02	  0.0000000E+00	  0.0000000E+00
    4.7000	  4.9778261E+00	  0.0000000E+00	  0.0000000E+00	  7.5877935E-01	  5.3577408E-02	  5.1242156E+00	  1.2580624E-01	 -1.2079375E-02	  0.0000000E+00	  0.0000000E+00	 -1.6393647E-02	 -2.2941148E-04	  0.0000000E+00	  0.0000000E+00	  0.0000000E+00	  0.0000000E+00	  0.0000000E+00	  0.0000000E+00	  0.0000000E+00	  1.1875749E+01	 -7.4845872E+00	  4.4566399E-01	 -6.1185132E+03	  4.8514552E+00	 -1.7038052E+03	  1.3535052E+02	  3.9834652E+01	  3.8207178E+02	  0.0000000E+00	  0.0000000E+00
    4.8000	  4.9573307E+00	  0.0000000E+00	  0.0000000E+00	  7.9140031E-01	  5.5250473E-02	  5.3760586E+00	  1.6037737E-01	 -1.4925546E-02	  0.0000000E+00	  0.0000000E+00	 -1.7484261E-02	 -2.4918624E-04	  0.0000000E+00	  0.0000000E+00	  0.0000000E+00	  0.0000000E+00	  0.0000000E+00	  0.0000000E+00	  0.0000000E+00	  1.3978292E+01	 -7.8911695E+00	  2.3659068E-01	 -6.1583843E+03	  1.3805336E+01	 -1.7580699E+03	  6.5770935E+01	  4.1798622E+01	  4.2641406E+02	  0.0000000E+00	  0.0000000E+00
    4.9000	  4.9368353E+00	  0.0000000E+00	  0.0000000E+00	  8.2514143E-01	  5.7200704E-02	  5.5991673E+00	  1.9454297E-01	 -1.9181391E-02	  0.0000000E+00	  0.0000000E+00	 -1.7770272E-02	 -2.7582466E-04	  0.0000000E+00	  0.0000000E+00	  0.0000000E+00	  0.0000000E+00	  0.0000000E+00	  0.0000000E+00	  0.0000000E+00	  9.8051586E+00	 -2.0735252E+00	 -4.7875080E-01	 -6.2123701E+03	  4.0138950E+01	 -1.5191145E+03	 -5.1360733E+01	  4.8623058E+01	  3.8455325E+02	  0.0000000E+00	  0.0000000E+00
    5.0000	  4.9163394E+00	  0.0000000E+00	  0.0000000E+00	  8.6005735E-01	  5.9156131E-02	  5.7474375E+00	  2.0709634E-01	 -2.1975985E-02	  0.0000000E+00	  0.0000000E+00	 -1.7630845E-02	 -2.8333440E-04	  0.0000000E+00	  0.0000000E+00	  0.0000000E+00	  0.0000000E+00	  0.0000000E+00	  0.0000000E+00	  0.0000000E+00	  7.0012894E+00	  2.3821211E+01	 -8.9033777E-01	 -6.2580552E+03	  5.5550800E+01	 -6.7111743E+02	 -1.7007712E+02	  5.9901878E+01	  3.5251901E+02	  0.0000000E+00	  0.0000000E+00
    5.1000	  4.9083400E+00	  0.0000000E+00	  0.0000000E+00	  8.9609343E-01	  6.0987718E-02	  5.8847542E+00	  1.8462503E-01	 -2.2418700E-02	  0.0000000E+00	  0.0000000E+00	 -1.7394373E-02	 -2.5296203E-04	  0.0000000E+00	  0.0000000E+00	  0.0000000E+00	  0.0000000E+00	  0.0000000E+00	  0.0000000E+00	  0.0000000E+00	  8.5048571E+00	  2.3840994E+01	 -9.4310004E-01	 -6.2744487E+03	  5.4298077E+01	 -6.0745917E+02	 -2.0720071E+02	  7.1774948E+01	  3.5299704E+02	  0.0000000E+00	  0.0000000E+00
    5.2000	  4.9003410E+00	  0.0000000E+00	  0.0000000E+00	  9.3327701E-01	  6.2938251E-02	  6.0726829E+00	  1.3870512E-01	 -2.0219501E-02	  0.0000000E+00	  0.0000000E+00	 -1.7065460E-02	 -1.8108470E-04	  0.0000000E+00	  0.0000000E+00	  0.0000000E+00	  0.0000000E+00	  0.0000000E+00	  0.0000000E+00	  0.0000000E+00	  1.1861027E+01	  1.1271636E+01	 -5.1719904E-01	 -6.2549761E+03	  3.1789680E+01	 -9.6121600E+02	 -9.1218971E+01	  7.8437912E+01	  3.5414709E+02	  0.0000000E+00	  0.0000000E+00
    5.3000	  4.8923416E+00	  0.0000000E+00	  0.0000000E+00	  9.7163534E-01	  6.4885624E-02	  6.3065572E+00	  9.2279129E-02	 -1.5888266E-02	  0.0000000E+00	  0.0000000E+00	 -1.6460750E-02	 -8.6624714E-05	  0.0000000E+00	  0.0000000E+00	  0.0000000E+00	  0.0000000E+00	  0.0000000E+00	  0.0000000E+00	  0.0000000E+00	  1.2761961E+01	  1.4535471E+01	  5.6055021E-01	 -6.2088057E+03	 -1.3530284E+01	 -8.7687726E+02	  1.5743867E+02	  7.5558548E+01	  3.0437302E+02	  0.0000000E+00	  0.0000000E+00
    5.4000	  4.8843427E+00	  0.0000000E+00	  0.0000000E+00	  1.0110592E+00	  6.6507861E-02	  6.5115762E+00	  5.5863906E-02	 -1.1291184E-02	  0.0000000E+00	  0.0000000E+00	 -1.5478705E-02	 -6.4284241E-06	  0.0000000E+00	  0.0000000E+00	  0.0000000E+00	  0.0000000E+00	  0.0000000E+00	  0.0000000E+00	  0.0000000E+00	  8.7464409E+00	  3.7409613E+00	  1.3128927E+00	 -6.1548608E+03	 -4.7022797E+01	 -1.1650671E+03	  4.0939749E+02	  6.3327366E+01	  1.8623575E+02	  0.0000000E+00	  0.0000000E+00
    5.5000	  4.8763433E+00	  0.0000000E+00	  0.0000000E+00	  1.0513573E+00	  6.7739099E-02	  6.6191940E+00	  2.6479624E-02	 -6.7856302E-03	  0.0000000E+00	  0.0000000E+00	 -1.4113540E-02	  2.9247403E-05	  0.0000000E+00	  0.0000000E+00	  0.0000000E+00	  0.0000000E+00	  0.0000000E+00	  0.0000000E+00	  0.0000000E+00	  3.2063329E+00	 -8.0806465E+00	  1.3499022E+00	 -6.1178164E+03	 -5.2298084E+01	 -1.4196722E+03	  5.1068088E+02	  4.8129902E+01	  9.2702232E+01	  0.0000000E+00	  0.0000000E+00
    5.6000	  4.8683438E+00	  0.0000000E+00	  0.0000000E+00	  1.0922564E+00	  6.8504788E-02	  6.6518517E+00	  2.6795312E-03	 -2.7574415E-03	  0.0000000E+00	  0.0000000E+00	 -1.2374740E-02	  1.1990067E-05	  0.0000000E+00	  0.0000000E+00	  0.0000000E+00	  0.0000000E+00	  0.0000000E+00	  0.0000000E+00	  0.0000000E+00	  1.0038520E+00	  4.7401242E+00	  1.0719179E+00	 -6.1150630E+03	 -3.9721687E+01	 -8.8831757E+02	  3.9549002E+02	  3.8935455E+01	  9.9991768E+01	  0.0000000E+00	  0.0000000E+00
    5.7000	  4.8603449E+00	  0.0000000E+00	  0.0000000E+00	  1.1334561E+00	  6.8770833E-02	  6.6700764E+00	 -6.6340705E-03	 -2.0156868E-03	  0.0000000E+00	  0.0000000E+00	 -1.0305023E-02	 -4.4556495E-05	  0.0000000E+00	  0.0000000E+00	  0.0000000E+00	  0.0000000E+00	  0.0000000E+00	  0.0000000E+00	  0.0000000E+00	  1.0364321E+00	  9.9260025E+00	  2.6940009E-01	 -6.1458115E+03	 -5.6890640E+00	 -5.0269812E+02	  1.2228062E+02	  4.1211082E+01	  1.5123241E+02	  0.0000000E+00	  0.0000000E+00
    5.8000	  4.8523455E+00	  0.0000000E+00	  0.0000000E+00	  1.1747651E+00	  6.8947256E-02	  6.6883340E+00	  1.0561966E-02	 -5.8601415E-03	  0.0000000E+00	  0.0000000E+00	 -8.0684954E-03	 -1.0707675E-04	  0.0000000E+00	  0.0000000E+00	  0.0000000E+00	  0.0000000E+00	  0.0000000E+00	  0.0000000E+00	  0.0000000E+00	  9.3781739E-01	  1.2559326E+01	 -7.5652188E-01	 -6.1956909E+03	  3.5984505E+01	 -1.4804648E+02	 -1.8807198E+02	  5.5400982E+01	  1.8331976E+02	  0.0000000E+00	  0.0000000E+00